 Entering Gaussian System, Link 0=g16
 Initial command:
 /opt/gaussian/g16/l1.exe "/scratch/Gau-30163.inp" -scrdir="/scratch/"
 Entering Link 1 = /opt/gaussian/g16/l1.exe PID=     30164.
  
 Copyright (c) 1988-2019, Gaussian, Inc.  All Rights Reserved.
  
 This is part of the Gaussian(R) 16 program.  It is based on
 the Gaussian(R) 09 system (copyright 2009, Gaussian, Inc.),
 the Gaussian(R) 03 system (copyright 2003, Gaussian, Inc.),
 the Gaussian(R) 98 system (copyright 1998, Gaussian, Inc.),
 the Gaussian(R) 94 system (copyright 1995, Gaussian, Inc.),
 the Gaussian 92(TM) system (copyright 1992, Gaussian, Inc.),
 the Gaussian 90(TM) system (copyright 1990, Gaussian, Inc.),
 the Gaussian 88(TM) system (copyright 1988, Gaussian, Inc.),
 the Gaussian 86(TM) system (copyright 1986, Carnegie Mellon
 University), and the Gaussian 82(TM) system (copyright 1983,
 Carnegie Mellon University). Gaussian is a federally registered
 trademark of Gaussian, Inc.
  
 This software contains proprietary and confidential information,
 including trade secrets, belonging to Gaussian, Inc.
  
 This software is provided under written license and may be
 used, copied, transmitted, or stored only in accord with that
 written license.
  
 The following legend is applicable only to US Government
 contracts under FAR:
  
                    RESTRICTED RIGHTS LEGEND
  
 Use, reproduction and disclosure by the US Government is
 subject to restrictions as set forth in subparagraphs (a)
 and (c) of the Commercial Computer Software - Restricted
 Rights clause in FAR 52.227-19.
  
 Gaussian, Inc.
 340 Quinnipiac St., Bldg. 40, Wallingford CT 06492
  
  
 ---------------------------------------------------------------
 Warning -- This program may not be used in any manner that
 competes with the business of Gaussian, Inc. or will provide
 assistance to any competitor of Gaussian, Inc.  The licensee
 of this program is prohibited from giving any competitor of
 Gaussian, Inc. access to this program.  By using this program,
 the user acknowledges that Gaussian, Inc. is engaged in the
 business of creating and licensing software in the field of
 computational chemistry and represents and warrants to the
 licensee that it is not a competitor of Gaussian, Inc. and that
 it will not use this program in any manner prohibited above.
 ---------------------------------------------------------------
  

 Cite this work as:
 Gaussian 16, Revision C.01,
 M. J. Frisch, G. W. Trucks, H. B. Schlegel, G. E. Scuseria, 
 M. A. Robb, J. R. Cheeseman, G. Scalmani, V. Barone, 
 G. A. Petersson, H. Nakatsuji, X. Li, M. Caricato, A. V. Marenich, 
 J. Bloino, B. G. Janesko, R. Gomperts, B. Mennucci, H. P. Hratchian, 
 J. V. Ortiz, A. F. Izmaylov, J. L. Sonnenberg, D. Williams-Young, 
 F. Ding, F. Lipparini, F. Egidi, J. Goings, B. Peng, A. Petrone, 
 T. Henderson, D. Ranasinghe, V. G. Zakrzewski, J. Gao, N. Rega, 
 G. Zheng, W. Liang, M. Hada, M. Ehara, K. Toyota, R. Fukuda, 
 J. Hasegawa, M. Ishida, T. Nakajima, Y. Honda, O. Kitao, H. Nakai, 
 T. Vreven, K. Throssell, J. A. Montgomery, Jr., J. E. Peralta, 
 F. Ogliaro, M. J. Bearpark, J. J. Heyd, E. N. Brothers, K. N. Kudin, 
 V. N. Staroverov, T. A. Keith, R. Kobayashi, J. Normand, 
 K. Raghavachari, A. P. Rendell, J. C. Burant, S. S. Iyengar, 
 J. Tomasi, M. Cossi, J. M. Millam, M. Klene, C. Adamo, R. Cammi, 
 J. W. Ochterski, R. L. Martin, K. Morokuma, O. Farkas, 
 J. B. Foresman, and D. J. Fox, Gaussian, Inc., Wallingford CT, 2019.
 
 ******************************************
 Gaussian 16:  ES64L-G16RevC.01  3-Jul-2019
                10-Jun-2025 
 ******************************************
 ---------------------------------------------
 # wB97xD/Def2TZVP SCF(Tight) Int(Grid=299974)
 ---------------------------------------------
 1/38=1,172=1/1;
 2/12=2,17=6,18=5,40=1/2;
 3/5=44,7=101,11=2,25=1,30=1,74=-58,75=299974/1,2,3;
 4//1;
 5/5=2,32=2,38=5/2;
 6/7=2,8=2,9=2,10=2,28=1/1;
 99/5=1,9=1/99;
 -----------------
 Displacement_0.09
 -----------------
 Symbolic Z-matrix:
 Charge = -1 Multiplicity = 1
 N                    -2.44939   1.66211   0.31258 
 H                    -1.8926    1.66173   1.15867 
 H                    -2.08055   2.39618  -0.2733 
 H                    -4.1774    1.14129   0.66201 
 C                    -2.34829   0.35429  -0.35133 
 H                    -2.34121   0.52504  -1.4324 
 C                    -1.09445  -0.434     0.01895 
 H                    -1.1588   -1.42065  -0.44229 
 H                    -1.09439  -0.60081   1.10359 
 C                     0.18947   0.26903  -0.40151 
 H                     0.22625   1.27477   0.0337 
 H                     0.20219   0.4038   -1.48811 
 C                     1.45499  -0.47538   0.01098 
 H                     1.50015  -1.44956  -0.48642 
 H                     1.38645  -0.69233   1.09711 
 N                     2.63781   0.25245  -0.37036 
 H                     2.66348   1.14038   0.18572 
 C                     3.9102   -0.45352  -0.15834 
 N                     4.22796  -0.56081   1.25928 
 H                     3.54892  -1.18156   1.68065 
 H                     4.15519   0.39908   1.66584 
 N                     4.9533    0.386    -0.71187 
 H                     4.68874   0.64587  -1.65731 
 H                     4.94053   1.33655  -0.25742 
 C                    -3.63401  -0.44553  -0.08875 
 O                    -4.58652   0.25795   0.52483 
 O                    -3.78911  -1.58538  -0.4257 
 
                          Input orientation:                          
 ---------------------------------------------------------------------
 Center     Atomic      Atomic             Coordinates (Angstroms)
 Number     Number       Type             X           Y           Z
 ---------------------------------------------------------------------
      1          7           0       -2.449391    1.662106    0.312579
      2          1           0       -1.892601    1.661727    1.158668
      3          1           0       -2.080546    2.396181   -0.273303
      4          1           0       -4.177396    1.141286    0.662011
      5          6           0       -2.348291    0.354291   -0.351331
      6          1           0       -2.341210    0.525036   -1.432399
      7          6           0       -1.094454   -0.433998    0.018947
      8          1           0       -1.158799   -1.420651   -0.442292
      9          1           0       -1.094388   -0.600813    1.103594
     10          6           0        0.189472    0.269027   -0.401511
     11          1           0        0.226249    1.274775    0.033698
     12          1           0        0.202187    0.403801   -1.488111
     13          6           0        1.454987   -0.475381    0.010983
     14          1           0        1.500154   -1.449564   -0.486422
     15          1           0        1.386451   -0.692328    1.097108
     16          7           0        2.637813    0.252447   -0.370362
     17          1           0        2.663477    1.140380    0.185721
     18          6           0        3.910200   -0.453520   -0.158339
     19          7           0        4.227964   -0.560812    1.259282
     20          1           0        3.548917   -1.181561    1.680652
     21          1           0        4.155188    0.399081    1.665839
     22          7           0        4.953303    0.386004   -0.711869
     23          1           0        4.688741    0.645868   -1.657312
     24          1           0        4.940528    1.336549   -0.257421
     25          6           0       -3.634014   -0.445530   -0.088747
     26          8           0       -4.586522    0.257947    0.524834
     27          8           0       -3.789113   -1.585375   -0.425703
 ---------------------------------------------------------------------
                    Distance matrix (angstroms):
                    1          2          3          4          5
     1  N    0.000000
     2  H    1.012858   0.000000
     3  H    1.009044   1.620274   0.000000
     4  H    1.838303   2.395374   2.616554   0.000000
     5  C    1.470162   2.048692   2.060847   2.234244   0.000000
     6  H    2.085565   2.864777   2.216446   2.852700   1.094492
     7  C    2.513111   2.515565   3.011262   3.521304   1.526634
     8  H    3.426200   3.550013   3.930188   4.110345   2.138594
     9  H    2.753641   2.399847   3.442430   3.568591   2.145065
    10  C    3.068255   2.951068   3.113552   4.578368   2.539691
    11  H    2.717876   2.429982   2.583235   4.450246   2.761122
    12  H    3.443353   3.602215   3.264385   4.934334   2.792787
    13  C    4.461387   4.134097   4.563626   5.895862   3.909546
    14  H    5.091149   4.888480   5.258953   6.345548   4.252372
    15  H    4.568646   4.037022   4.841176   5.874338   4.140252
    16  N    5.322893   4.984842   5.183428   6.950029   4.987180
    17  H    5.140983   4.687886   4.928843   6.857434   5.101390
    18  C    6.718782   6.315162   6.634987   8.284056   6.313360
    19  N    7.101034   6.512382   7.133717   8.596740   6.832175
    20  H    6.777740   6.161726   6.950470   8.131984   6.423773
    21  H    6.859082   6.198972   6.828840   8.425586   6.809275
    22  N    7.581412   7.210602   7.328587   9.264322   7.310559
    23  H    7.474365   7.230199   7.127575   9.177858   7.163129
    24  H    7.419015   6.985893   7.100602   9.166244   7.355306
    25  C    2.450821   3.004845   3.243863   1.837631   1.536798
    26  O    2.565939   3.103152   3.389540   0.983102   2.405541
    27  O    3.589714   4.080522   4.335345   2.961176   2.417396
                    6          7          8          9         10
     6  H    0.000000
     7  C    2.140222   0.000000
     8  H    2.482762   1.091039   0.000000
     9  H    3.041934   1.097400   1.751013   0.000000
    10  C    2.744562   1.522989   2.162061   2.161078   0.000000
    11  H    3.050147   2.159717   3.067612   2.531124   1.096489
    12  H    2.546894   2.157408   2.504924   3.067131   1.095000
    13  C    4.182738   2.549789   2.816180   2.776481   1.525065
    14  H    4.421538   2.831742   2.659476   3.159142   2.163019
    15  H    4.666459   2.717362   3.062434   2.482535   2.145419
    16  N    5.098323   3.814785   4.149541   4.102429   2.448595
    17  H    5.295645   4.077809   4.643606   4.242145   2.687898
    18  C    6.454528   5.007831   5.168242   5.163339   3.798029
    19  N    7.181801   5.466502   5.714183   5.324779   4.444804
    20  H    6.877293   4.988087   5.169782   4.714928   4.210164
    21  H    7.198481   5.564622   5.999508   5.373449   4.474120
    22  N    7.331331   6.146695   6.379221   6.390953   4.775363
    23  H    7.034586   6.117295   6.319850   6.528506   4.686413
    24  H    7.420434   6.295413   6.696127   6.482742   4.871642
    25  C    2.102080   2.541869   2.683756   2.809891   3.902238
    26  O    2.990572   3.595726   3.937297   3.642449   4.865014
    27  O    2.750217   2.963877   2.635519   3.251101   4.389593
                   11         12         13         14         15
    11  H    0.000000
    12  H    1.753590   0.000000
    13  C    2.138541   2.142371   0.000000
    14  H    3.052111   2.474482   1.094753   0.000000
    15  H    2.519207   3.047513   1.109698   1.758949   0.000000
    16  N    2.650294   2.684128   1.440220   2.050507   2.147551
    17  H    2.445660   3.066302   2.025257   2.917689   2.412517
    18  C    4.073742   4.031458   2.461142   2.628320   2.828866
    19  N    4.570028   4.968453   3.042195   3.358320   2.849174
    20  H    4.448164   4.873914   2.769662   2.994239   2.292626
    21  H    4.343649   5.057039   3.285471   3.885733   3.029939
    22  N    4.867322   4.814143   3.674604   3.917190   4.142177
    23  H    4.813406   4.496264   3.807568   3.991103   4.503634
    24  H    4.723663   4.983622   3.937528   4.432949   4.310749
    25  C    4.228010   4.170854   5.090066   5.246514   5.164516
    26  O    4.943472   5.196629   6.107507   6.402020   6.075107
    27  O    4.951226   4.584322   5.378045   5.291359   5.468359
                   16         17         18         19         20
    16  N    0.000000
    17  H    1.048004   0.000000
    18  C    1.470480   2.052611   0.000000
    19  N    2.417790   2.548373   1.456755   0.000000
    20  H    2.663296   2.900040   2.010586   1.011922   0.000000
    21  H    2.543628   2.228335   2.028441   1.044978   1.692989
    22  N    2.344346   2.572558   1.448882   2.303913   3.186490
    23  H    2.453024   2.782626   2.015366   3.189814   3.972493
    24  H    2.547652   2.328050   2.067786   2.531425   3.468946
    25  C    6.316826   6.499910   7.544539   7.977542   7.434179
    26  O    7.279589   7.311373   8.553783   8.882845   8.342270
    27  O    6.684761   7.031323   7.786655   8.256054   7.645030
                   21         22         23         24         25
    21  H    0.000000
    22  N    2.508118   0.000000
    23  H    3.374747   1.015571   0.000000
    24  H    2.279152   1.053671   1.581180   0.000000
    25  C    8.028923   8.649956   8.539309   8.759396   0.000000
    26  O    8.816990   9.620504   9.536391   9.619771   1.333654
    27  O    8.451304   8.966497   8.852644   9.207203   1.198683
                   26         27
    26  O    0.000000
    27  O    2.221985   0.000000
 Stoichiometry    C6H15N4O2(1-)
 Framework group  C1[X(C6H15N4O2)]
 Deg. of freedom    75
 Full point group                 C1      NOp   1
 Largest Abelian subgroup         C1      NOp   1
 Largest concise Abelian subgroup C1      NOp   1
                         Standard orientation:                         
 ---------------------------------------------------------------------
 Center     Atomic      Atomic             Coordinates (Angstroms)
 Number     Number       Type             X           Y           Z
 ---------------------------------------------------------------------
      1          7           0       -2.449316    1.661231    0.318143
      2          1           0       -1.892676    1.657958    1.164325
      3          1           0       -2.080229    2.397164   -0.265250
      4          1           0       -4.177480    1.139586    0.665550
      5          6           0       -2.348342    0.355593   -0.350057
      6          1           0       -2.341037    0.529900   -1.430555
      7          6           0       -1.094719   -0.434148    0.017842
      8          1           0       -1.159166   -1.419263   -0.446659
      9          1           0       -1.094877   -0.604538    1.101933
     10          6           0        0.189414    0.270019   -0.400068
     11          1           0        0.226301    1.274319    0.038461
     12          1           0        0.202347    0.408372   -1.486216
     13          6           0        1.454716   -0.475983    0.010194
     14          1           0        1.499789   -1.448529   -0.490413
     15          1           0        1.385946   -0.696497    1.095585
     16          7           0        2.637746    0.252877   -0.368540
     17          1           0        2.663477    1.138966    0.190472
     18          6           0        3.909963   -0.454024   -0.158620
     19          7           0        4.227455   -0.566049    1.258696
     20          1           0        3.548217   -1.188057    1.677896
     21          1           0        4.154786    0.392512    1.668402
     22          7           0        4.953322    0.387124   -0.709194
     23          1           0        4.688976    0.650154   -1.653822
     24          1           0        4.940644    1.336168   -0.251617
     25          6           0       -3.634262   -0.444848   -0.090340
     26          8           0       -4.586747    0.256780    0.525388
     27          8           0       -3.789514   -1.583547   -0.431080
 ---------------------------------------------------------------------
 Rotational constants (GHZ):           2.7667833           0.2562348           0.2486399
 Standard basis: def2TZVP (5D, 7F)
 There are   522 symmetry adapted cartesian basis functions of A   symmetry.
 There are   462 symmetry adapted basis functions of A   symmetry.
   462 basis functions,   732 primitive gaussians,   522 cartesian basis functions
    48 alpha electrons       48 beta electrons
       nuclear repulsion energy       711.3364145185 Hartrees.
 NAtoms=   27 NActive=   27 NUniq=   27 SFac= 1.00D+00 NAtFMM=   60 NAOKFM=F Big=F
 Integral buffers will be    131072 words long.
 Raffenetti 2 integral format.
 Two-electron integral symmetry is turned on.
 Nuclear repulsion after empirical dispersion term =      711.3189099212 Hartrees.
 One-electron integrals computed using PRISM.
   1 Symmetry operations used in ECPInt.
 ECPInt:  NShTT=   18528 NPrTT=   54924 LenC2=   16268 LenP2D=   36013.
 LDataN:  DoStor=T MaxTD1= 6 Len=  172
 NBasis=   462 RedAO= T EigKep=  7.71D-05  NBF=   462
 NBsUse=   462 1.00D-06 EigRej= -1.00D+00 NBFU=   462
 ExpMin= 9.52D-02 ExpMax= 2.70D+04 ExpMxC= 9.22D+02 IAcc=4 IRadAn=    299974 AccDes= 0.00D+00
 Harris functional with IExCor= 4639 and IRadAn=  299974 diagonalized for initial guess.
 HarFok:  IExCor= 4639 AccDes= 0.00D+00 IRadAn=    299974 IDoV= 1 UseB2=F ITyADJ=14
 ICtDFT=  3500011 ScaDFX=  1.000000  1.000000  1.000000  1.000000
 FoFCou: FMM=F IPFlag=           0 FMFlag=      100000 FMFlg1=           0
         NFxFlg=           0 DoJE=T BraDBF=F KetDBF=T FulRan=T
         wScrn=  0.000000 ICntrl=       500 IOpCl=  0 I1Cent=   200000004 NGrid=           0
         NMat0=    1 NMatS0=      1 NMatT0=    0 NMatD0=    1 NMtDS0=    0 NMtDT0=    0
 Petite list used in FoFCou.
 Requested convergence on RMS density matrix=1.00D-08 within 128 cycles.
 Requested convergence on MAX density matrix=1.00D-06.
 Requested convergence on             energy=1.00D-06.
 No special actions if energy rises.
 Integral accuracy reduced to 1.0D-05 until final iterations.
 Initial convergence to 1.0D-05 achieved.  Increase integral accuracy.
 SCF Done:  E(RwB97XD) =  -607.131606403     A.U. after   17 cycles
            NFock= 17  Conv=0.23D-08     -V/T= 2.0045

 **********************************************************************

            Population analysis using the SCF Density.

 **********************************************************************

 Orbital symmetries:
       Occupied  (A) (A) (A) (A) (A) (A) (A) (A) (A) (A) (A) (A)
                 (A) (A) (A) (A) (A) (A) (A) (A) (A) (A) (A) (A)
                 (A) (A) (A) (A) (A) (A) (A) (A) (A) (A) (A) (A)
                 (A) (A) (A) (A) (A) (A) (A) (A) (A) (A) (A) (A)
       Virtual   (A) (A) (A) (A) (A) (A) (A) (A) (A) (A) (A) (A)
                 (A) (A) (A) (A) (A) (A) (A) (A) (A) (A) (A) (A)
                 (A) (A) (A) (A) (A) (A) (A) (A) (A) (A) (A) (A)
                 (A) (A) (A) (A) (A) (A) (A) (A) (A) (A) (A) (A)
                 (A) (A) (A) (A) (A) (A) (A) (A) (A) (A) (A) (A)
                 (A) (A) (A) (A) (A) (A) (A) (A) (A) (A) (A) (A)
                 (A) (A) (A) (A) (A) (A) (A) (A) (A) (A) (A) (A)
                 (A) (A) (A) (A) (A) (A) (A) (A) (A) (A) (A) (A)
                 (A) (A) (A) (A) (A) (A) (A) (A) (A) (A) (A) (A)
                 (A) (A) (A) (A) (A) (A) (A) (A) (A) (A) (A) (A)
                 (A) (A) (A) (A) (A) (A) (A) (A) (A) (A) (A) (A)
                 (A) (A) (A) (A) (A) (A) (A) (A) (A) (A) (A) (A)
                 (A) (A) (A) (A) (A) (A) (A) (A) (A) (A) (A) (A)
                 (A) (A) (A) (A) (A) (A) (A) (A) (A) (A) (A) (A)
                 (A) (A) (A) (A) (A) (A) (A) (A) (A) (A) (A) (A)
                 (A) (A) (A) (A) (A) (A) (A) (A) (A) (A) (A) (A)
                 (A) (A) (A) (A) (A) (A) (A) (A) (A) (A) (A) (A)
                 (A) (A) (A) (A) (A) (A) (A) (A) (A) (A) (A) (A)
                 (A) (A) (A) (A) (A) (A) (A) (A) (A) (A) (A) (A)
                 (A) (A) (A) (A) (A) (A) (A) (A) (A) (A) (A) (A)
                 (A) (A) (A) (A) (A) (A) (A) (A) (A) (A) (A) (A)
                 (A) (A) (A) (A) (A) (A) (A) (A) (A) (A) (A) (A)
                 (A) (A) (A) (A) (A) (A) (A) (A) (A) (A) (A) (A)
                 (A) (A) (A) (A) (A) (A) (A) (A) (A) (A) (A) (A)
                 (A) (A) (A) (A) (A) (A) (A) (A) (A) (A) (A) (A)
                 (A) (A) (A) (A) (A) (A) (A) (A) (A) (A) (A) (A)
                 (A) (A) (A) (A) (A) (A) (A) (A) (A) (A) (A) (A)
                 (A) (A) (A) (A) (A) (A) (A) (A) (A) (A) (A) (A)
                 (A) (A) (A) (A) (A) (A) (A) (A) (A) (A) (A) (A)
                 (A) (A) (A) (A) (A) (A) (A) (A) (A) (A) (A) (A)
                 (A) (A) (A) (A) (A) (A) (A) (A) (A) (A) (A) (A)
                 (A) (A) (A) (A) (A) (A) (A) (A) (A) (A) (A) (A)
                 (A) (A) (A) (A) (A) (A) (A) (A) (A) (A) (A) (A)
                 (A) (A) (A) (A) (A) (A) (A) (A) (A) (A) (A) (A)
                 (A) (A) (A) (A) (A) (A)
 The electronic state is 1-A.
 Alpha  occ. eigenvalues --  -19.20422 -19.14477 -14.37148 -14.23916 -14.22522
 Alpha  occ. eigenvalues --  -14.22245 -10.32614 -10.25469 -10.19394 -10.16793
 Alpha  occ. eigenvalues --  -10.15871 -10.10006  -1.12373  -1.03770  -0.94112
 Alpha  occ. eigenvalues --   -0.85540  -0.80063  -0.77100  -0.73922  -0.71251
 Alpha  occ. eigenvalues --   -0.62982  -0.60596  -0.56974  -0.54600  -0.51434
 Alpha  occ. eigenvalues --   -0.48815  -0.47882  -0.45818  -0.45277  -0.43369
 Alpha  occ. eigenvalues --   -0.41604  -0.40413  -0.39078  -0.37245  -0.36366
 Alpha  occ. eigenvalues --   -0.34776  -0.33959  -0.32685  -0.31885  -0.31171
 Alpha  occ. eigenvalues --   -0.30440  -0.28856  -0.28021  -0.26200  -0.18567
 Alpha  occ. eigenvalues --   -0.15580  -0.11880  -0.03619
 Alpha virt. eigenvalues --    0.15790   0.18120   0.20615   0.22634   0.23415
 Alpha virt. eigenvalues --    0.25100   0.25776   0.26600   0.27640   0.28045
 Alpha virt. eigenvalues --    0.29982   0.31009   0.32228   0.32765   0.33055
 Alpha virt. eigenvalues --    0.35044   0.35161   0.35330   0.36258   0.37533
 Alpha virt. eigenvalues --    0.37811   0.39301   0.40659   0.42108   0.43974
 Alpha virt. eigenvalues --    0.43980   0.44770   0.45600   0.46243   0.47420
 Alpha virt. eigenvalues --    0.47745   0.48624   0.49473   0.50862   0.51340
 Alpha virt. eigenvalues --    0.52503   0.53409   0.54105   0.54856   0.55464
 Alpha virt. eigenvalues --    0.56119   0.56199   0.57322   0.57723   0.59349
 Alpha virt. eigenvalues --    0.59563   0.60759   0.61418   0.61790   0.62375
 Alpha virt. eigenvalues --    0.62777   0.63817   0.64037   0.64792   0.65267
 Alpha virt. eigenvalues --    0.65713   0.66222   0.66889   0.67803   0.69002
 Alpha virt. eigenvalues --    0.69617   0.70160   0.70918   0.71878   0.72008
 Alpha virt. eigenvalues --    0.72182   0.73309   0.73842   0.74411   0.75420
 Alpha virt. eigenvalues --    0.77330   0.78227   0.78731   0.79335   0.80683
 Alpha virt. eigenvalues --    0.82169   0.82466   0.83640   0.84500   0.85998
 Alpha virt. eigenvalues --    0.86326   0.88828   0.90484   0.91049   0.92896
 Alpha virt. eigenvalues --    0.94840   0.96355   0.97936   0.99805   1.00884
 Alpha virt. eigenvalues --    1.02241   1.03742   1.06102   1.06363   1.07967
 Alpha virt. eigenvalues --    1.09038   1.09736   1.10171   1.13251   1.15437
 Alpha virt. eigenvalues --    1.17068   1.17391   1.18714   1.21164   1.22780
 Alpha virt. eigenvalues --    1.23758   1.26287   1.28246   1.29768   1.30406
 Alpha virt. eigenvalues --    1.33330   1.33908   1.36453   1.38034   1.40617
 Alpha virt. eigenvalues --    1.41173   1.43178   1.46345   1.47567   1.48705
 Alpha virt. eigenvalues --    1.49427   1.50931   1.52394   1.52710   1.53938
 Alpha virt. eigenvalues --    1.55093   1.55917   1.57210   1.58175   1.60412
 Alpha virt. eigenvalues --    1.61379   1.63411   1.64808   1.65596   1.66668
 Alpha virt. eigenvalues --    1.67354   1.70195   1.70821   1.72358   1.73549
 Alpha virt. eigenvalues --    1.73811   1.75759   1.77730   1.78321   1.79979
 Alpha virt. eigenvalues --    1.80326   1.81920   1.82797   1.85176   1.86761
 Alpha virt. eigenvalues --    1.88770   1.89485   1.92780   1.93537   1.95348
 Alpha virt. eigenvalues --    1.95536   1.97179   1.98701   1.99292   2.00933
 Alpha virt. eigenvalues --    2.02848   2.04005   2.05267   2.06033   2.08077
 Alpha virt. eigenvalues --    2.09437   2.09942   2.10766   2.11468   2.13539
 Alpha virt. eigenvalues --    2.15780   2.16026   2.16609   2.18282   2.20341
 Alpha virt. eigenvalues --    2.21222   2.22090   2.22451   2.23495   2.24987
 Alpha virt. eigenvalues --    2.25648   2.26847   2.27100   2.28719   2.29266
 Alpha virt. eigenvalues --    2.31707   2.32954   2.33760   2.36899   2.37410
 Alpha virt. eigenvalues --    2.40083   2.40432   2.43444   2.44338   2.45369
 Alpha virt. eigenvalues --    2.45929   2.48403   2.48688   2.51406   2.52301
 Alpha virt. eigenvalues --    2.54601   2.56305   2.57843   2.58542   2.60107
 Alpha virt. eigenvalues --    2.60934   2.62198   2.64761   2.65626   2.68162
 Alpha virt. eigenvalues --    2.69026   2.69049   2.70396   2.71474   2.72895
 Alpha virt. eigenvalues --    2.75191   2.76394   2.77616   2.79149   2.80011
 Alpha virt. eigenvalues --    2.81968   2.83146   2.83689   2.84137   2.86433
 Alpha virt. eigenvalues --    2.88905   2.89642   2.90266   2.90776   2.91060
 Alpha virt. eigenvalues --    2.94578   2.94801   2.95677   2.96375   2.97288
 Alpha virt. eigenvalues --    2.99881   3.04026   3.05102   3.06498   3.08089
 Alpha virt. eigenvalues --    3.09163   3.10397   3.12219   3.13420   3.14583
 Alpha virt. eigenvalues --    3.16893   3.18781   3.21437   3.22033   3.25187
 Alpha virt. eigenvalues --    3.25645   3.26143   3.28446   3.29047   3.29781
 Alpha virt. eigenvalues --    3.31407   3.32274   3.37928   3.39016   3.41328
 Alpha virt. eigenvalues --    3.42100   3.42811   3.45010   3.45177   3.46274
 Alpha virt. eigenvalues --    3.46679   3.48768   3.49883   3.51294   3.51818
 Alpha virt. eigenvalues --    3.52630   3.53644   3.54666   3.56642   3.59067
 Alpha virt. eigenvalues --    3.61004   3.62748   3.64063   3.64854   3.66025
 Alpha virt. eigenvalues --    3.68125   3.68919   3.69607   3.70780   3.74082
 Alpha virt. eigenvalues --    3.75422   3.76583   3.77655   3.81451   3.82021
 Alpha virt. eigenvalues --    3.83412   3.85625   3.85838   3.88290   3.91900
 Alpha virt. eigenvalues --    3.93907   3.95055   3.99560   4.04141   4.04828
 Alpha virt. eigenvalues --    4.06167   4.08030   4.11429   4.12388   4.13541
 Alpha virt. eigenvalues --    4.14108   4.18036   4.20574   4.21187   4.21836
 Alpha virt. eigenvalues --    4.26343   4.31462   4.32809   4.36522   4.37657
 Alpha virt. eigenvalues --    4.40520   4.43695   4.48548   4.50427   4.53597
 Alpha virt. eigenvalues --    4.53803   4.58211   4.58743   4.59833   4.61870
 Alpha virt. eigenvalues --    4.64124   4.66370   4.70370   4.74360   4.74705
 Alpha virt. eigenvalues --    4.77597   4.81547   4.84579   4.88263   4.89126
 Alpha virt. eigenvalues --    4.91630   4.93491   4.97294   4.99048   4.99254
 Alpha virt. eigenvalues --    5.01143   5.02238   5.07355   5.09629   5.10209
 Alpha virt. eigenvalues --    5.11898   5.12922   5.16799   5.18514   5.20547
 Alpha virt. eigenvalues --    5.24140   5.26050   5.28504   5.29623   5.30756
 Alpha virt. eigenvalues --    5.34053   5.34987   5.35223   5.38105   5.38554
 Alpha virt. eigenvalues --    5.41501   5.42393   5.44816   5.46687   5.48868
 Alpha virt. eigenvalues --    5.49613   5.52968   5.56538   5.59522   5.61419
 Alpha virt. eigenvalues --    5.63841   5.68265   5.70712   5.71974   5.72330
 Alpha virt. eigenvalues --    5.73867   5.76226   5.80421   5.87125   5.87747
 Alpha virt. eigenvalues --    5.92918   5.94477   5.96840   6.01193   6.10707
 Alpha virt. eigenvalues --    6.16573   6.20125   6.25857   6.35949   6.36439
 Alpha virt. eigenvalues --    6.53630   6.58949   6.63519   6.67845   6.89955
 Alpha virt. eigenvalues --    6.90132   6.97028   7.00753   7.19115   7.30568
 Alpha virt. eigenvalues --    7.34109   7.46540  22.62027  22.71345  22.73363
 Alpha virt. eigenvalues --   22.76937  22.79879  23.51680  32.20080  32.22112
 Alpha virt. eigenvalues --   32.30554  32.74873  44.02110  44.08740
          Condensed to atoms (all electrons):
               1          2          3          4          5          6
     1  N    6.771196   0.368701   0.372495   0.056214   0.142701  -0.044812
     2  H    0.368701   0.441755  -0.028763  -0.001653  -0.033600   0.005969
     3  H    0.372495  -0.028763   0.442057  -0.000773  -0.019376  -0.010993
     4  H    0.056214  -0.001653  -0.000773   0.358822  -0.017512   0.001364
     5  C    0.142701  -0.033600  -0.019376  -0.017512   5.404034   0.404392
     6  H   -0.044812   0.005969  -0.010993   0.001364   0.404392   0.578470
     7  C   -0.050425  -0.005909  -0.002913   0.003811   0.223231  -0.035800
     8  H    0.008512   0.000338  -0.000453  -0.000234  -0.044716  -0.003129
     9  H   -0.010422   0.004964  -0.000161  -0.000098  -0.024886   0.008540
    10  C    0.010016  -0.000132   0.001701  -0.000243  -0.040761  -0.003576
    11  H    0.017715   0.003233  -0.000424   0.000007  -0.024019  -0.000810
    12  H   -0.001732   0.000347   0.000415  -0.000046   0.005930   0.003028
    13  C    0.001918  -0.000494   0.000178   0.000005  -0.014480   0.000717
    14  H   -0.000105   0.000051  -0.000006   0.000000   0.001667  -0.000008
    15  H    0.000066  -0.000011   0.000047  -0.000002   0.002183  -0.000245
    16  N    0.000117   0.000005   0.000008  -0.000000  -0.000984  -0.000071
    17  H   -0.000182   0.000109   0.000004  -0.000001   0.001138  -0.000055
    18  C    0.000017  -0.000009   0.000000  -0.000000  -0.000147   0.000003
    19  N   -0.000000   0.000002   0.000000   0.000000   0.000025  -0.000001
    20  H   -0.000000   0.000000  -0.000000   0.000000   0.000007   0.000000
    21  H   -0.000001   0.000004   0.000000  -0.000000   0.000027  -0.000001
    22  N   -0.000000   0.000000   0.000000  -0.000000  -0.000002  -0.000000
    23  H   -0.000000  -0.000000   0.000000   0.000000   0.000000  -0.000000
    24  H   -0.000000   0.000000   0.000000  -0.000000   0.000007  -0.000000
    25  C   -0.006119  -0.000628   0.000450  -0.034423   0.233372  -0.014195
    26  O   -0.045383   0.000868   0.000307   0.288911  -0.123783   0.001700
    27  O    0.005318  -0.000022  -0.000214   0.005001  -0.131370   0.002424
               7          8          9         10         11         12
     1  N   -0.050425   0.008512  -0.010422   0.010016   0.017715  -0.001732
     2  H   -0.005909   0.000338   0.004964  -0.000132   0.003233   0.000347
     3  H   -0.002913  -0.000453  -0.000161   0.001701  -0.000424   0.000415
     4  H    0.003811  -0.000234  -0.000098  -0.000243   0.000007  -0.000046
     5  C    0.223231  -0.044716  -0.024886  -0.040761  -0.024019   0.005930
     6  H   -0.035800  -0.003129   0.008540  -0.003576  -0.000810   0.003028
     7  C    5.317387   0.396298   0.389918   0.144418  -0.057018  -0.019888
     8  H    0.396298   0.532456  -0.016406  -0.017698   0.007857  -0.006878
     9  H    0.389918  -0.016406   0.599461  -0.058559  -0.006020   0.008385
    10  C    0.144418  -0.017698  -0.058559   5.299053   0.411745   0.355474
    11  H   -0.057018   0.007857  -0.006020   0.411745   0.667174  -0.042687
    12  H   -0.019888  -0.006878   0.008385   0.355474  -0.042687   0.625085
    13  C   -0.056004   0.005404   0.006197   0.139952  -0.032273  -0.025034
    14  H   -0.027846   0.003412  -0.001415   0.046421   0.012265  -0.014345
    15  H    0.047930  -0.002730   0.005042  -0.092806  -0.014936   0.018606
    16  N    0.011472   0.000140   0.000217  -0.101151  -0.005260   0.018898
    17  H   -0.002455  -0.000163  -0.000381   0.040533   0.018733  -0.000576
    18  C   -0.002630  -0.000092   0.000146  -0.005928  -0.001780  -0.000110
    19  N    0.001461  -0.000005  -0.000135   0.007002  -0.000284   0.000203
    20  H   -0.000158   0.000011  -0.000043   0.001653   0.000078  -0.000124
    21  H    0.000033  -0.000014  -0.000051   0.005731   0.000943   0.000073
    22  N   -0.000108  -0.000000  -0.000001  -0.001159  -0.000062  -0.000141
    23  H    0.000073  -0.000002   0.000001  -0.000416  -0.000087   0.000352
    24  H    0.000003  -0.000003  -0.000001   0.002479   0.000300   0.000226
    25  C   -0.018195  -0.002244  -0.002179  -0.004037  -0.000424   0.000701
    26  O   -0.001459   0.000947   0.002264  -0.000664  -0.000009   0.000012
    27  O    0.011586   0.012345   0.000307  -0.001352  -0.000079   0.000025
              13         14         15         16         17         18
     1  N    0.001918  -0.000105   0.000066   0.000117  -0.000182   0.000017
     2  H   -0.000494   0.000051  -0.000011   0.000005   0.000109  -0.000009
     3  H    0.000178  -0.000006   0.000047   0.000008   0.000004   0.000000
     4  H    0.000005   0.000000  -0.000002  -0.000000  -0.000001  -0.000000
     5  C   -0.014480   0.001667   0.002183  -0.000984   0.001138  -0.000147
     6  H    0.000717  -0.000008  -0.000245  -0.000071  -0.000055   0.000003
     7  C   -0.056004  -0.027846   0.047930   0.011472  -0.002455  -0.002630
     8  H    0.005404   0.003412  -0.002730   0.000140  -0.000163  -0.000092
     9  H    0.006197  -0.001415   0.005042   0.000217  -0.000381   0.000146
    10  C    0.139952   0.046421  -0.092806  -0.101151   0.040533  -0.005928
    11  H   -0.032273   0.012265  -0.014936  -0.005260   0.018733  -0.001780
    12  H   -0.025034  -0.014345   0.018606   0.018898  -0.000576  -0.000110
    13  C    5.211725   0.281976   0.344632   0.436010  -0.165704  -0.066538
    14  H    0.281976   0.678284  -0.071321  -0.055288   0.043752   0.034793
    15  H    0.344632  -0.071321   0.861794  -0.103513  -0.005759  -0.031135
    16  N    0.436010  -0.055288  -0.103513   6.810014   0.148354   0.527933
    17  H   -0.165704   0.043752  -0.005759   0.148354   1.011489  -0.287059
    18  C   -0.066538   0.034793  -0.031135   0.527933  -0.287059   5.699941
    19  N    0.013660  -0.003129   0.040084  -0.163739  -0.015570   0.349740
    20  H    0.004042   0.001455  -0.001919   0.004742   0.000433  -0.072742
    21  H   -0.015768   0.008219   0.006274  -0.043865   0.128742  -0.281206
    22  N    0.007500   0.003330  -0.000248  -0.172414   0.025792   0.419727
    23  H    0.001406  -0.000615   0.000487   0.015345   0.000866  -0.079450
    24  H   -0.007696   0.002658   0.001200  -0.043738   0.104251  -0.253409
    25  C   -0.000294  -0.000139   0.000414  -0.000002   0.000008  -0.000003
    26  O    0.000004  -0.000001  -0.000001  -0.000000  -0.000000   0.000000
    27  O    0.000197  -0.000029  -0.000004  -0.000000   0.000000   0.000000
              19         20         21         22         23         24
     1  N   -0.000000  -0.000000  -0.000001  -0.000000  -0.000000  -0.000000
     2  H    0.000002   0.000000   0.000004   0.000000  -0.000000   0.000000
     3  H    0.000000  -0.000000   0.000000   0.000000   0.000000   0.000000
     4  H    0.000000   0.000000  -0.000000  -0.000000   0.000000  -0.000000
     5  C    0.000025   0.000007   0.000027  -0.000002   0.000000   0.000007
     6  H   -0.000001   0.000000  -0.000001  -0.000000  -0.000000  -0.000000
     7  C    0.001461  -0.000158   0.000033  -0.000108   0.000073   0.000003
     8  H   -0.000005   0.000011  -0.000014  -0.000000  -0.000002  -0.000003
     9  H   -0.000135  -0.000043  -0.000051  -0.000001   0.000001  -0.000001
    10  C    0.007002   0.001653   0.005731  -0.001159  -0.000416   0.002479
    11  H   -0.000284   0.000078   0.000943  -0.000062  -0.000087   0.000300
    12  H    0.000203  -0.000124   0.000073  -0.000141   0.000352   0.000226
    13  C    0.013660   0.004042  -0.015768   0.007500   0.001406  -0.007696
    14  H   -0.003129   0.001455   0.008219   0.003330  -0.000615   0.002658
    15  H    0.040084  -0.001919   0.006274  -0.000248   0.000487   0.001200
    16  N   -0.163739   0.004742  -0.043865  -0.172414   0.015345  -0.043738
    17  H   -0.015570   0.000433   0.128742   0.025792   0.000866   0.104251
    18  C    0.349740  -0.072742  -0.281206   0.419727  -0.079450  -0.253409
    19  N    6.739947   0.387831   0.245795  -0.094404   0.013785  -0.025685
    20  H    0.387831   0.539650  -0.046954   0.009441  -0.001469  -0.001006
    21  H    0.245795  -0.046954   0.886084  -0.007322  -0.000876   0.095796
    22  N   -0.094404   0.009441  -0.007322   6.683332   0.366245   0.263237
    23  H    0.013785  -0.001469  -0.000876   0.366245   0.570221  -0.045148
    24  H   -0.025685  -0.001006   0.095796   0.263237  -0.045148   0.873582
    25  C    0.000000  -0.000000   0.000000  -0.000000   0.000000   0.000000
    26  O   -0.000000  -0.000000   0.000000  -0.000000  -0.000000   0.000000
    27  O    0.000000  -0.000000   0.000000   0.000000   0.000000   0.000000
              25         26         27
     1  N   -0.006119  -0.045383   0.005318
     2  H   -0.000628   0.000868  -0.000022
     3  H    0.000450   0.000307  -0.000214
     4  H   -0.034423   0.288911   0.005001
     5  C    0.233372  -0.123783  -0.131370
     6  H   -0.014195   0.001700   0.002424
     7  C   -0.018195  -0.001459   0.011586
     8  H   -0.002244   0.000947   0.012345
     9  H   -0.002179   0.002264   0.000307
    10  C   -0.004037  -0.000664  -0.001352
    11  H   -0.000424  -0.000009  -0.000079
    12  H    0.000701   0.000012   0.000025
    13  C   -0.000294   0.000004   0.000197
    14  H   -0.000139  -0.000001  -0.000029
    15  H    0.000414  -0.000001  -0.000004
    16  N   -0.000002  -0.000000  -0.000000
    17  H    0.000008  -0.000000   0.000000
    18  C   -0.000003   0.000000   0.000000
    19  N    0.000000  -0.000000   0.000000
    20  H   -0.000000  -0.000000  -0.000000
    21  H    0.000000   0.000000   0.000000
    22  N   -0.000000  -0.000000   0.000000
    23  H    0.000000  -0.000000   0.000000
    24  H    0.000000   0.000000   0.000000
    25  C    4.436029   0.392317   0.700644
    26  O    0.392317   7.953821  -0.085404
    27  O    0.700644  -0.085404   7.840563
 Mulliken charges:
               1
     1  N   -0.595804
     2  H    0.244873
     3  H    0.246412
     4  H    0.340850
     5  C    0.056922
     6  H    0.107090
     7  C   -0.266812
     8  H    0.127047
     9  H    0.095318
    10  C   -0.137695
    11  H    0.046122
    12  H    0.073803
    13  C   -0.071236
    14  H    0.055965
    15  H   -0.004129
    16  N   -0.283231
    17  H   -0.046301
    18  C    0.049938
    19  N   -0.496582
    20  H    0.175072
    21  H    0.018336
    22  N   -0.502744
    23  H    0.159279
    24  H    0.032948
    25  C    0.318946
    26  O   -0.384448
    27  O   -0.359936
 Sum of Mulliken charges =  -1.00000
 Mulliken charges with hydrogens summed into heavy atoms:
               1
     1  N   -0.104520
     5  C    0.164011
     7  C   -0.044447
    10  C   -0.017771
    13  C   -0.019400
    16  N   -0.329532
    18  C    0.049938
    19  N   -0.303174
    22  N   -0.310517
    25  C    0.318946
    26  O   -0.043598
    27  O   -0.359936
 Electronic spatial extent (au):  <R**2>=           4291.5011
 Charge=             -1.0000 electrons
 Dipole moment (field-independent basis, Debye):
    X=            -14.1034    Y=              5.7860    Z=              0.8646  Tot=             15.2686
 Quadrupole moment (field-independent basis, Debye-Ang):
   XX=           -197.7851   YY=            -83.2472   ZZ=            -78.8301
   XY=             -2.8316   XZ=              0.3911   YZ=             -1.7790
 Traceless Quadrupole moment (field-independent basis, Debye-Ang):
   XX=            -77.8310   YY=             36.7069   ZZ=             41.1241
   XY=             -2.8316   XZ=              0.3911   YZ=             -1.7790
 Octapole moment (field-independent basis, Debye-Ang**2):
  XXX=           -355.9856  YYY=             20.6719  ZZZ=             -3.3033  XYY=            -19.0598
  XXY=             94.3928  XXZ=             -8.1219  XZZ=            -34.5641  YZZ=              5.3388
  YYZ=              3.8472  XYZ=              3.6076
 Hexadecapole moment (field-independent basis, Debye-Ang**3):
 XXXX=          -8083.9728 YYYY=           -423.1959 ZZZZ=           -267.6807 XXXY=             54.3214
 XXXZ=            -25.4518 YYYX=            -26.7824 YYYZ=            -11.0711 ZZZX=            -34.0627
 ZZZY=             -0.5810 XXYY=          -1039.9628 XXZZ=           -950.9347 YYZZ=           -113.2128
 XXYZ=            -16.4703 YYXZ=             -7.1786 ZZXY=              4.8462
 N-N= 7.113189099212D+02 E-N=-2.854428117957D+03  KE= 6.044088559900D+02
 Unable to Open any file for archive entry.
 1\1\GINC-WATER\SP\RwB97XD\def2TZVP\C6H15N4O2(1-)\DAYALYZ\10-Jun-2025\0
 \\# wB97xD/Def2TZVP SCF(Tight) Int(Grid=299974)\\Displacement_0.09\\-1
 ,1\N,0,-2.449391,1.662106,0.312579\H,0,-1.892601,1.661727,1.158668\H,0
 ,-2.080546,2.396181,-0.273303\H,0,-4.177396,1.141286,0.662011\C,0,-2.3
 48291,0.354291,-0.351331\H,0,-2.34121,0.525036,-1.432399\C,0,-1.094454
 ,-0.433998,0.018947\H,0,-1.158799,-1.420651,-0.442292\H,0,-1.094388,-0
 .600813,1.103594\C,0,0.189472,0.269027,-0.401511\H,0,0.226249,1.274775
 ,0.033698\H,0,0.202187,0.403801,-1.488111\C,0,1.454987,-0.475381,0.010
 983\H,0,1.500154,-1.449564,-0.486422\H,0,1.386451,-0.692328,1.097108\N
 ,0,2.637813,0.252447,-0.370362\H,0,2.663477,1.14038,0.185721\C,0,3.910
 2,-0.45352,-0.158339\N,0,4.227964,-0.560812,1.259282\H,0,3.548917,-1.1
 81561,1.680652\H,0,4.155188,0.399081,1.665839\N,0,4.953303,0.386004,-0
 .711869\H,0,4.688741,0.645868,-1.657312\H,0,4.940528,1.336549,-0.25742
 1\C,0,-3.634014,-0.44553,-0.088747\O,0,-4.586522,0.257947,0.524834\O,0
 ,-3.789113,-1.585375,-0.425703\\Version=ES64L-G16RevC.01\State=1-A\HF=
 -607.1316064\RMSD=2.300e-09\Dipole=-5.5490772,2.2764442,0.3336334\Quad
 rupole=-57.8645098,27.2812081,30.5833017,-2.1203947,0.3136577,-1.31133
 7\PG=C01 [X(C6H15N4O2)]\\@
 The archive entry for this job was punched.


 One man practicing sportsmanship is far better than 50 preaching it.
 -- Knute K. Rockne
 Job cpu time:       0 days  0 hours 49 minutes 42.5 seconds.
 Elapsed time:       0 days  0 hours 49 minutes 49.3 seconds.
 File lengths (MBytes):  RWF=    118 Int=      0 D2E=      0 Chk=     13 Scr=      1
 Normal termination of Gaussian 16 at Tue Jun 10 22:54:36 2025.
