 Entering Gaussian System, Link 0=g16
 Initial command:
 /opt/gaussian/g16/l1.exe "/scratch/Gau-3924582.inp" -scrdir="/scratch/"
 Entering Link 1 = /opt/gaussian/g16/l1.exe PID=   3924583.
  
 Copyright (c) 1988-2019, Gaussian, Inc.  All Rights Reserved.
  
 This is part of the Gaussian(R) 16 program.  It is based on
 the Gaussian(R) 09 system (copyright 2009, Gaussian, Inc.),
 the Gaussian(R) 03 system (copyright 2003, Gaussian, Inc.),
 the Gaussian(R) 98 system (copyright 1998, Gaussian, Inc.),
 the Gaussian(R) 94 system (copyright 1995, Gaussian, Inc.),
 the Gaussian 92(TM) system (copyright 1992, Gaussian, Inc.),
 the Gaussian 90(TM) system (copyright 1990, Gaussian, Inc.),
 the Gaussian 88(TM) system (copyright 1988, Gaussian, Inc.),
 the Gaussian 86(TM) system (copyright 1986, Carnegie Mellon
 University), and the Gaussian 82(TM) system (copyright 1983,
 Carnegie Mellon University). Gaussian is a federally registered
 trademark of Gaussian, Inc.
  
 This software contains proprietary and confidential information,
 including trade secrets, belonging to Gaussian, Inc.
  
 This software is provided under written license and may be
 used, copied, transmitted, or stored only in accord with that
 written license.
  
 The following legend is applicable only to US Government
 contracts under FAR:
  
                    RESTRICTED RIGHTS LEGEND
  
 Use, reproduction and disclosure by the US Government is
 subject to restrictions as set forth in subparagraphs (a)
 and (c) of the Commercial Computer Software - Restricted
 Rights clause in FAR 52.227-19.
  
 Gaussian, Inc.
 340 Quinnipiac St., Bldg. 40, Wallingford CT 06492
  
  
 ---------------------------------------------------------------
 Warning -- This program may not be used in any manner that
 competes with the business of Gaussian, Inc. or will provide
 assistance to any competitor of Gaussian, Inc.  The licensee
 of this program is prohibited from giving any competitor of
 Gaussian, Inc. access to this program.  By using this program,
 the user acknowledges that Gaussian, Inc. is engaged in the
 business of creating and licensing software in the field of
 computational chemistry and represents and warrants to the
 licensee that it is not a competitor of Gaussian, Inc. and that
 it will not use this program in any manner prohibited above.
 ---------------------------------------------------------------
  

 Cite this work as:
 Gaussian 16, Revision C.01,
 M. J. Frisch, G. W. Trucks, H. B. Schlegel, G. E. Scuseria, 
 M. A. Robb, J. R. Cheeseman, G. Scalmani, V. Barone, 
 G. A. Petersson, H. Nakatsuji, X. Li, M. Caricato, A. V. Marenich, 
 J. Bloino, B. G. Janesko, R. Gomperts, B. Mennucci, H. P. Hratchian, 
 J. V. Ortiz, A. F. Izmaylov, J. L. Sonnenberg, D. Williams-Young, 
 F. Ding, F. Lipparini, F. Egidi, J. Goings, B. Peng, A. Petrone, 
 T. Henderson, D. Ranasinghe, V. G. Zakrzewski, J. Gao, N. Rega, 
 G. Zheng, W. Liang, M. Hada, M. Ehara, K. Toyota, R. Fukuda, 
 J. Hasegawa, M. Ishida, T. Nakajima, Y. Honda, O. Kitao, H. Nakai, 
 T. Vreven, K. Throssell, J. A. Montgomery, Jr., J. E. Peralta, 
 F. Ogliaro, M. J. Bearpark, J. J. Heyd, E. N. Brothers, K. N. Kudin, 
 V. N. Staroverov, T. A. Keith, R. Kobayashi, J. Normand, 
 K. Raghavachari, A. P. Rendell, J. C. Burant, S. S. Iyengar, 
 J. Tomasi, M. Cossi, J. M. Millam, M. Klene, C. Adamo, R. Cammi, 
 J. W. Ochterski, R. L. Martin, K. Morokuma, O. Farkas, 
 J. B. Foresman, and D. J. Fox, Gaussian, Inc., Wallingford CT, 2019.
 
 ******************************************
 Gaussian 16:  ES64L-G16RevC.01  3-Jul-2019
                10-Jun-2025 
 ******************************************
 ---------------------------------------------
 # wB97xD/Def2TZVP SCF(Tight) Int(Grid=299974)
 ---------------------------------------------
 1/38=1,172=1/1;
 2/12=2,17=6,18=5,40=1/2;
 3/5=44,7=101,11=2,25=1,30=1,74=-58,75=299974/1,2,3;
 4//1;
 5/5=2,32=2,38=5/2;
 6/7=2,8=2,9=2,10=2,28=1/1;
 99/5=1,9=1/99;
 ------------------
 Displacement_-0.08
 ------------------
 Symbolic Z-matrix:
 Charge = -1 Multiplicity = 1
 N                    -2.44939   1.66211   0.31258 
 H                    -1.8926    1.66173   1.15867 
 H                    -2.08055   2.39618  -0.2733 
 H                    -4.1774    1.14129   0.66201 
 C                    -2.34829   0.35429  -0.35133 
 H                    -2.34121   0.52504  -1.4324 
 C                    -1.09445  -0.434     0.01895 
 H                    -1.1588   -1.42065  -0.44229 
 H                    -1.09439  -0.60081   1.10359 
 C                     0.18947   0.26903  -0.40151 
 H                     0.22625   1.27477   0.0337 
 H                     0.20219   0.4038   -1.48811 
 C                     1.45499  -0.47538   0.01098 
 H                     1.50015  -1.44786  -0.48812 
 H                     1.38815  -0.69063   1.09711 
 N                     2.63781   0.25245  -0.37036 
 H                     2.66348   1.14038   0.18402 
 C                     3.9119   -0.45352  -0.16004 
 N                     4.22966  -0.56251   1.25078 
 H                     3.54212  -1.12036   1.74355 
 H                     4.11269   0.36508   1.74064 
 N                     4.955     0.3928   -0.71527 
 H                     4.67514   0.56937  -1.67261 
 H                     4.93543   1.29405  -0.18942 
 C                    -3.63401  -0.44553  -0.08875 
 O                    -4.58652   0.25795   0.52483 
 O                    -3.78911  -1.58538  -0.4257 
 
                          Input orientation:                          
 ---------------------------------------------------------------------
 Center     Atomic      Atomic             Coordinates (Angstroms)
 Number     Number       Type             X           Y           Z
 ---------------------------------------------------------------------
      1          7           0       -2.449391    1.662106    0.312579
      2          1           0       -1.892601    1.661727    1.158668
      3          1           0       -2.080546    2.396181   -0.273303
      4          1           0       -4.177396    1.141286    0.662011
      5          6           0       -2.348291    0.354291   -0.351331
      6          1           0       -2.341210    0.525036   -1.432399
      7          6           0       -1.094454   -0.433998    0.018947
      8          1           0       -1.158799   -1.420651   -0.442292
      9          1           0       -1.094388   -0.600813    1.103594
     10          6           0        0.189472    0.269027   -0.401511
     11          1           0        0.226249    1.274775    0.033698
     12          1           0        0.202187    0.403801   -1.488111
     13          6           0        1.454987   -0.475381    0.010983
     14          1           0        1.500154   -1.447864   -0.488122
     15          1           0        1.388151   -0.690628    1.097108
     16          7           0        2.637813    0.252447   -0.370362
     17          1           0        2.663477    1.140380    0.184021
     18          6           0        3.911900   -0.453520   -0.160039
     19          7           0        4.229664   -0.562512    1.250782
     20          1           0        3.542117   -1.120361    1.743552
     21          1           0        4.112688    0.365081    1.740639
     22          7           0        4.955003    0.392804   -0.715269
     23          1           0        4.675141    0.569368   -1.672612
     24          1           0        4.935428    1.294049   -0.189421
     25          6           0       -3.634014   -0.445530   -0.088747
     26          8           0       -4.586522    0.257947    0.524834
     27          8           0       -3.789113   -1.585375   -0.425703
 ---------------------------------------------------------------------
                    Distance matrix (angstroms):
                    1          2          3          4          5
     1  N    0.000000
     2  H    1.012858   0.000000
     3  H    1.009044   1.620274   0.000000
     4  H    1.838303   2.395374   2.616554   0.000000
     5  C    1.470162   2.048692   2.060847   2.234244   0.000000
     6  H    2.085565   2.864777   2.216446   2.852700   1.094492
     7  C    2.513111   2.515565   3.011262   3.521304   1.526634
     8  H    3.426200   3.550013   3.930188   4.110345   2.138594
     9  H    2.753641   2.399847   3.442430   3.568591   2.145065
    10  C    3.068255   2.951068   3.113552   4.578368   2.539691
    11  H    2.717876   2.429982   2.583235   4.450246   2.761122
    12  H    3.443353   3.602215   3.264385   4.934334   2.792787
    13  C    4.461387   4.134097   4.563626   5.895862   3.909546
    14  H    5.090377   4.887971   5.257779   6.345162   4.251706
    15  H    4.569198   4.037412   4.841309   5.875418   4.141356
    16  N    5.322893   4.984842   5.183428   6.950029   4.987180
    17  H    5.141026   4.688239   4.928685   6.857552   5.101211
    18  C    6.720511   6.317079   6.636493   8.285885   6.314993
    19  N    7.102037   6.514434   7.134105   8.598153   6.832041
    20  H    6.759288   6.133373   6.931674   8.116382   6.423398
    21  H    6.839774   6.171181   6.821838   8.395917   6.791223
    22  N    7.582391   7.211899   7.328561   9.265950   7.312458
    23  H    7.476230   7.234959   7.136849   9.173057   7.149870
    24  H    7.411007   6.969542   7.102508   9.153788   7.345878
    25  C    2.450821   3.004845   3.243863   1.837631   1.536798
    26  O    2.565939   3.103152   3.389540   0.983102   2.405541
    27  O    3.589714   4.080522   4.335345   2.961176   2.417396
                    6          7          8          9         10
     6  H    0.000000
     7  C    2.140222   0.000000
     8  H    2.482762   1.091039   0.000000
     9  H    3.041934   1.097400   1.751013   0.000000
    10  C    2.744562   1.522989   2.162061   2.161078   0.000000
    11  H    3.050147   2.159717   3.067612   2.531124   1.096489
    12  H    2.546894   2.157408   2.504924   3.067131   1.095000
    13  C    4.182738   2.549789   2.816180   2.776481   1.525065
    14  H    4.420415   2.831437   2.659487   3.159542   2.161736
    15  H    4.667374   2.718753   3.064252   2.484172   2.145607
    16  N    5.098323   3.814785   4.149541   4.102429   2.448595
    17  H    5.295125   4.077740   4.643376   4.242513   2.687528
    18  C    6.455839   5.009591   5.169816   5.165403   3.799586
    19  N    7.180432   5.466275   5.713006   5.326224   4.443499
    20  H    6.885313   4.994311   5.192947   4.709210   4.215676
    21  H    7.193508   5.542299   5.978512   5.334081   4.470979
    22  N    7.332563   6.149683   6.382923   6.394581   4.777452
    23  H    7.020602   6.095600   6.285596   6.508772   4.671951
    24  H    7.421983   6.276069   6.676312   6.451439   4.860015
    25  C    2.102080   2.541869   2.683756   2.809891   3.902238
    26  O    2.990572   3.595726   3.937297   3.642449   4.865014
    27  O    2.750217   2.963877   2.635519   3.251101   4.389593
                   11         12         13         14         15
    11  H    0.000000
    12  H    1.753590   0.000000
    13  C    2.138541   2.142371   0.000000
    14  H    3.050884   2.472521   1.094015   0.000000
    15  H    2.518664   3.047563   1.109264   1.760371   0.000000
    16  N    2.650294   2.684128   1.440220   2.049193   2.145813
    17  H    2.445555   3.065375   2.025111   2.916180   2.410970
    18  C    4.075360   4.032461   2.462955   2.629235   2.829478
    19  N    4.569929   4.965467   3.040317   3.355273   2.848548
    20  H    4.433425   4.890997   2.788173   3.042571   2.289570
    21  H    4.341152   5.071326   3.280467   3.883230   2.991948
    22  N    4.868258   4.815253   3.678491   3.921178   4.144993
    23  H    4.816818   4.479818   3.780924   3.943702   4.479201
    24  H    4.714501   4.988257   3.909541   4.405498   4.263481
    25  C    4.228010   4.170854   5.090066   5.246318   5.166088
    26  O    4.943472   5.196629   6.107507   6.401835   6.076513
    27  O    4.951226   4.584322   5.378045   5.291422   5.470246
                   16         17         18         19         20
    16  N    0.000000
    17  H    1.047103   0.000000
    18  C    1.471707   2.053644   0.000000
    19  N    2.413764   2.547697   1.450265   0.000000
    20  H    2.677872   2.883591   2.050628   1.013281   0.000000
    21  H    2.577648   2.263705   2.079183   1.055496   1.591257
    22  N    2.346919   2.572680   1.453482   2.303064   3.214299
    23  H    2.438647   2.796414   1.979069   3.166360   3.976066
    24  H    2.529172   2.307560   2.025456   2.453387   3.392208
    25  C    6.316826   6.499839   7.546255   7.977810   7.437041
    26  O    7.279589   7.311452   8.555607   8.883991   8.334253
    27  O    6.684761   7.031175   7.788278   8.255764   7.659559
                   21         22         23         24         25
    21  H    0.000000
    22  N    2.596487   0.000000
    23  H    3.465309   1.012918   0.000000
    24  H    2.294562   1.043620   1.671158   0.000000
    25  C    8.000946   8.652546   8.519431   8.744805   0.000000
    26  O    8.784413   9.622720   9.523873   9.604749   1.333654
    27  O    8.422338   8.969761   8.822771   9.190458   1.198683
                   26         27
    26  O    0.000000
    27  O    2.221985   0.000000
 Stoichiometry    C6H15N4O2(1-)
 Framework group  C1[X(C6H15N4O2)]
 Deg. of freedom    75
 Full point group                 C1      NOp   1
 Largest Abelian subgroup         C1      NOp   1
 Largest concise Abelian subgroup C1      NOp   1
                         Standard orientation:                         
 ---------------------------------------------------------------------
 Center     Atomic      Atomic             Coordinates (Angstroms)
 Number     Number       Type             X           Y           Z
 ---------------------------------------------------------------------
      1          7           0       -2.449456    1.662890    0.307526
      2          1           0       -1.892534    1.665134    1.153525
      3          1           0       -2.080824    2.395270   -0.280607
      4          1           0       -4.177321    1.142834    0.658785
      5          6           0       -2.348244    0.353112   -0.352485
      6          1           0       -2.341361    0.520623   -1.434060
      7          6           0       -1.094219   -0.433860    0.019953
      8          1           0       -1.158474   -1.421899   -0.438323
      9          1           0       -1.093956   -0.597429    1.105094
     10          6           0        0.189525    0.268116   -0.402808
     11          1           0        0.226204    1.275167    0.029385
     12          1           0        0.202048    0.399641   -1.489808
     13          6           0        1.455227   -0.474847    0.011713
     14          1           0        1.500477   -1.448811   -0.484488
     15          1           0        1.388596   -0.686855    1.098487
     16          7           0        2.637873    0.252032   -0.371993
     17          1           0        2.663477    1.141623    0.179727
     18          6           0        3.912110   -0.453093   -0.159759
     19          7           0        4.230112   -0.557812    1.251332
     20          1           0        3.542734   -1.114298    1.745876
     21          1           0        4.113060    0.371223    1.738430
     22          7           0        4.954986    0.391738   -0.717682
     23          1           0        4.674945    0.565391   -1.675505
     24          1           0        4.935345    1.294549   -0.194529
     25          6           0       -3.633794   -0.446132   -0.087308
     26          8           0       -4.586322    0.259021    0.524315
     27          8           0       -3.788758   -1.587005   -0.420828
 ---------------------------------------------------------------------
 Rotational constants (GHZ):           2.7669386           0.2561984           0.2486706
 Standard basis: def2TZVP (5D, 7F)
 There are   522 symmetry adapted cartesian basis functions of A   symmetry.
 There are   462 symmetry adapted basis functions of A   symmetry.
   462 basis functions,   732 primitive gaussians,   522 cartesian basis functions
    48 alpha electrons       48 beta electrons
       nuclear repulsion energy       711.3547918918 Hartrees.
 NAtoms=   27 NActive=   27 NUniq=   27 SFac= 1.00D+00 NAtFMM=   60 NAOKFM=F Big=F
 Integral buffers will be    131072 words long.
 Raffenetti 2 integral format.
 Two-electron integral symmetry is turned on.
 Nuclear repulsion after empirical dispersion term =      711.3372780837 Hartrees.
 One-electron integrals computed using PRISM.
   1 Symmetry operations used in ECPInt.
 ECPInt:  NShTT=   18528 NPrTT=   54924 LenC2=   16268 LenP2D=   36015.
 LDataN:  DoStor=T MaxTD1= 6 Len=  172
 NBasis=   462 RedAO= T EigKep=  7.72D-05  NBF=   462
 NBsUse=   462 1.00D-06 EigRej= -1.00D+00 NBFU=   462
 ExpMin= 9.52D-02 ExpMax= 2.70D+04 ExpMxC= 9.22D+02 IAcc=4 IRadAn=    299974 AccDes= 0.00D+00
 Harris functional with IExCor= 4639 and IRadAn=  299974 diagonalized for initial guess.
 HarFok:  IExCor= 4639 AccDes= 0.00D+00 IRadAn=    299974 IDoV= 1 UseB2=F ITyADJ=14
 ICtDFT=  3500011 ScaDFX=  1.000000  1.000000  1.000000  1.000000
 FoFCou: FMM=F IPFlag=           0 FMFlag=      100000 FMFlg1=           0
         NFxFlg=           0 DoJE=T BraDBF=F KetDBF=T FulRan=T
         wScrn=  0.000000 ICntrl=       500 IOpCl=  0 I1Cent=   200000004 NGrid=           0
         NMat0=    1 NMatS0=      1 NMatT0=    0 NMatD0=    1 NMtDS0=    0 NMtDT0=    0
 Petite list used in FoFCou.
 Requested convergence on RMS density matrix=1.00D-08 within 128 cycles.
 Requested convergence on MAX density matrix=1.00D-06.
 Requested convergence on             energy=1.00D-06.
 No special actions if energy rises.
 Integral accuracy reduced to 1.0D-05 until final iterations.
 Initial convergence to 1.0D-05 achieved.  Increase integral accuracy.
 SCF Done:  E(RwB97XD) =  -607.131913365     A.U. after   17 cycles
            NFock= 17  Conv=0.22D-08     -V/T= 2.0045

 **********************************************************************

            Population analysis using the SCF Density.

 **********************************************************************

 Orbital symmetries:
       Occupied  (A) (A) (A) (A) (A) (A) (A) (A) (A) (A) (A) (A)
                 (A) (A) (A) (A) (A) (A) (A) (A) (A) (A) (A) (A)
                 (A) (A) (A) (A) (A) (A) (A) (A) (A) (A) (A) (A)
                 (A) (A) (A) (A) (A) (A) (A) (A) (A) (A) (A) (A)
       Virtual   (A) (A) (A) (A) (A) (A) (A) (A) (A) (A) (A) (A)
                 (A) (A) (A) (A) (A) (A) (A) (A) (A) (A) (A) (A)
                 (A) (A) (A) (A) (A) (A) (A) (A) (A) (A) (A) (A)
                 (A) (A) (A) (A) (A) (A) (A) (A) (A) (A) (A) (A)
                 (A) (A) (A) (A) (A) (A) (A) (A) (A) (A) (A) (A)
                 (A) (A) (A) (A) (A) (A) (A) (A) (A) (A) (A) (A)
                 (A) (A) (A) (A) (A) (A) (A) (A) (A) (A) (A) (A)
                 (A) (A) (A) (A) (A) (A) (A) (A) (A) (A) (A) (A)
                 (A) (A) (A) (A) (A) (A) (A) (A) (A) (A) (A) (A)
                 (A) (A) (A) (A) (A) (A) (A) (A) (A) (A) (A) (A)
                 (A) (A) (A) (A) (A) (A) (A) (A) (A) (A) (A) (A)
                 (A) (A) (A) (A) (A) (A) (A) (A) (A) (A) (A) (A)
                 (A) (A) (A) (A) (A) (A) (A) (A) (A) (A) (A) (A)
                 (A) (A) (A) (A) (A) (A) (A) (A) (A) (A) (A) (A)
                 (A) (A) (A) (A) (A) (A) (A) (A) (A) (A) (A) (A)
                 (A) (A) (A) (A) (A) (A) (A) (A) (A) (A) (A) (A)
                 (A) (A) (A) (A) (A) (A) (A) (A) (A) (A) (A) (A)
                 (A) (A) (A) (A) (A) (A) (A) (A) (A) (A) (A) (A)
                 (A) (A) (A) (A) (A) (A) (A) (A) (A) (A) (A) (A)
                 (A) (A) (A) (A) (A) (A) (A) (A) (A) (A) (A) (A)
                 (A) (A) (A) (A) (A) (A) (A) (A) (A) (A) (A) (A)
                 (A) (A) (A) (A) (A) (A) (A) (A) (A) (A) (A) (A)
                 (A) (A) (A) (A) (A) (A) (A) (A) (A) (A) (A) (A)
                 (A) (A) (A) (A) (A) (A) (A) (A) (A) (A) (A) (A)
                 (A) (A) (A) (A) (A) (A) (A) (A) (A) (A) (A) (A)
                 (A) (A) (A) (A) (A) (A) (A) (A) (A) (A) (A) (A)
                 (A) (A) (A) (A) (A) (A) (A) (A) (A) (A) (A) (A)
                 (A) (A) (A) (A) (A) (A) (A) (A) (A) (A) (A) (A)
                 (A) (A) (A) (A) (A) (A) (A) (A) (A) (A) (A) (A)
                 (A) (A) (A) (A) (A) (A) (A) (A) (A) (A) (A) (A)
                 (A) (A) (A) (A) (A) (A) (A) (A) (A) (A) (A) (A)
                 (A) (A) (A) (A) (A) (A) (A) (A) (A) (A) (A) (A)
                 (A) (A) (A) (A) (A) (A) (A) (A) (A) (A) (A) (A)
                 (A) (A) (A) (A) (A) (A) (A) (A) (A) (A) (A) (A)
                 (A) (A) (A) (A) (A) (A)
 The electronic state is 1-A.
 Alpha  occ. eigenvalues --  -19.20420 -19.14474 -14.37146 -14.23876 -14.22649
 Alpha  occ. eigenvalues --  -14.22104 -10.32612 -10.25466 -10.19389 -10.16784
 Alpha  occ. eigenvalues --  -10.15852 -10.10032  -1.12370  -1.03767  -0.94109
 Alpha  occ. eigenvalues --   -0.85521  -0.80063  -0.77096  -0.73959  -0.71242
 Alpha  occ. eigenvalues --   -0.62971  -0.60592  -0.56959  -0.54588  -0.51428
 Alpha  occ. eigenvalues --   -0.48816  -0.47933  -0.45822  -0.45280  -0.43389
 Alpha  occ. eigenvalues --   -0.41507  -0.40409  -0.39151  -0.37130  -0.36222
 Alpha  occ. eigenvalues --   -0.35211  -0.33578  -0.32663  -0.31888  -0.31205
 Alpha  occ. eigenvalues --   -0.30548  -0.28559  -0.28320  -0.26188  -0.18699
 Alpha  occ. eigenvalues --   -0.15476  -0.11872  -0.03615
 Alpha virt. eigenvalues --    0.15792   0.18121   0.20605   0.22639   0.23382
 Alpha virt. eigenvalues --    0.25073   0.25753   0.26595   0.27597   0.28282
 Alpha virt. eigenvalues --    0.30000   0.30890   0.32243   0.32729   0.33125
 Alpha virt. eigenvalues --    0.34953   0.35210   0.35475   0.36249   0.37523
 Alpha virt. eigenvalues --    0.37812   0.39303   0.40688   0.42188   0.43914
 Alpha virt. eigenvalues --    0.43991   0.44785   0.45632   0.46389   0.47416
 Alpha virt. eigenvalues --    0.47585   0.48607   0.49461   0.50834   0.51425
 Alpha virt. eigenvalues --    0.52628   0.53383   0.53818   0.54791   0.55454
 Alpha virt. eigenvalues --    0.56133   0.56757   0.57468   0.58027   0.59378
 Alpha virt. eigenvalues --    0.59627   0.60776   0.61418   0.61993   0.62445
 Alpha virt. eigenvalues --    0.62753   0.63615   0.63956   0.64806   0.65251
 Alpha virt. eigenvalues --    0.65702   0.66097   0.66895   0.67659   0.69275
 Alpha virt. eigenvalues --    0.69403   0.69973   0.70899   0.71841   0.72028
 Alpha virt. eigenvalues --    0.72113   0.73364   0.73750   0.74501   0.75412
 Alpha virt. eigenvalues --    0.77106   0.77991   0.78817   0.79379   0.80676
 Alpha virt. eigenvalues --    0.82149   0.82656   0.83640   0.84453   0.85974
 Alpha virt. eigenvalues --    0.86064   0.88802   0.90547   0.91138   0.92654
 Alpha virt. eigenvalues --    0.94790   0.96385   0.97984   0.99246   1.00678
 Alpha virt. eigenvalues --    1.02914   1.04261   1.06064   1.06568   1.08287
 Alpha virt. eigenvalues --    1.09201   1.10091   1.10324   1.12547   1.15312
 Alpha virt. eigenvalues --    1.16894   1.17695   1.18757   1.20921   1.22679
 Alpha virt. eigenvalues --    1.23989   1.26216   1.28249   1.29964   1.31057
 Alpha virt. eigenvalues --    1.33303   1.34262   1.36347   1.38111   1.39914
 Alpha virt. eigenvalues --    1.40903   1.43059   1.46290   1.47002   1.48628
 Alpha virt. eigenvalues --    1.49456   1.50322   1.52357   1.52959   1.54039
 Alpha virt. eigenvalues --    1.54969   1.55805   1.57181   1.58272   1.60304
 Alpha virt. eigenvalues --    1.61365   1.63529   1.64823   1.65267   1.67256
 Alpha virt. eigenvalues --    1.67751   1.70116   1.70926   1.72641   1.73668
 Alpha virt. eigenvalues --    1.73923   1.75726   1.77802   1.78308   1.80186
 Alpha virt. eigenvalues --    1.80362   1.81915   1.83086   1.85135   1.86552
 Alpha virt. eigenvalues --    1.88740   1.89450   1.92590   1.93421   1.95254
 Alpha virt. eigenvalues --    1.95729   1.96866   1.98607   2.00147   2.00957
 Alpha virt. eigenvalues --    2.01214   2.04423   2.05291   2.05990   2.07861
 Alpha virt. eigenvalues --    2.09122   2.09949   2.10654   2.11484   2.13244
 Alpha virt. eigenvalues --    2.15405   2.15923   2.16591   2.18475   2.20632
 Alpha virt. eigenvalues --    2.21313   2.22063   2.23263   2.23313   2.25038
 Alpha virt. eigenvalues --    2.26115   2.26970   2.27146   2.28612   2.29269
 Alpha virt. eigenvalues --    2.31790   2.32771   2.33149   2.36845   2.37659
 Alpha virt. eigenvalues --    2.39973   2.40607   2.43647   2.44275   2.45316
 Alpha virt. eigenvalues --    2.46323   2.48258   2.49143   2.51576   2.52069
 Alpha virt. eigenvalues --    2.54824   2.56370   2.58349   2.58774   2.59912
 Alpha virt. eigenvalues --    2.60788   2.62366   2.65001   2.65558   2.67190
 Alpha virt. eigenvalues --    2.68498   2.68885   2.71184   2.72596   2.73938
 Alpha virt. eigenvalues --    2.75026   2.75876   2.77292   2.79040   2.81013
 Alpha virt. eigenvalues --    2.81698   2.82938   2.83807   2.84373   2.85879
 Alpha virt. eigenvalues --    2.88867   2.89468   2.90242   2.90663   2.91424
 Alpha virt. eigenvalues --    2.93893   2.94819   2.95792   2.96558   2.97381
 Alpha virt. eigenvalues --    2.99535   3.03592   3.05049   3.06610   3.07816
 Alpha virt. eigenvalues --    3.09140   3.10202   3.12187   3.13341   3.14681
 Alpha virt. eigenvalues --    3.17138   3.18964   3.21679   3.23035   3.24957
 Alpha virt. eigenvalues --    3.25676   3.26506   3.28811   3.29026   3.30289
 Alpha virt. eigenvalues --    3.31324   3.35621   3.38456   3.39412   3.40430
 Alpha virt. eigenvalues --    3.42499   3.43004   3.44517   3.45191   3.46292
 Alpha virt. eigenvalues --    3.46425   3.48857   3.49882   3.50710   3.51875
 Alpha virt. eigenvalues --    3.52621   3.53558   3.53727   3.56747   3.58424
 Alpha virt. eigenvalues --    3.59886   3.62132   3.63945   3.64814   3.65934
 Alpha virt. eigenvalues --    3.68044   3.69209   3.69526   3.70941   3.73940
 Alpha virt. eigenvalues --    3.75400   3.76423   3.77756   3.81355   3.82019
 Alpha virt. eigenvalues --    3.83564   3.85767   3.86773   3.88533   3.92670
 Alpha virt. eigenvalues --    3.93711   3.95179   3.99574   4.04103   4.04690
 Alpha virt. eigenvalues --    4.05842   4.07972   4.10849   4.12624   4.13916
 Alpha virt. eigenvalues --    4.14660   4.17854   4.20918   4.21209   4.22360
 Alpha virt. eigenvalues --    4.26179   4.31328   4.32594   4.36663   4.38057
 Alpha virt. eigenvalues --    4.40541   4.43816   4.48656   4.50706   4.53666
 Alpha virt. eigenvalues --    4.54165   4.56620   4.58758   4.59362   4.61455
 Alpha virt. eigenvalues --    4.64123   4.66118   4.70323   4.74350   4.74865
 Alpha virt. eigenvalues --    4.77446   4.81565   4.84628   4.88400   4.90094
 Alpha virt. eigenvalues --    4.91575   4.93496   4.96751   4.98535   4.99682
 Alpha virt. eigenvalues --    5.01198   5.02132   5.07450   5.09213   5.09952
 Alpha virt. eigenvalues --    5.11788   5.12704   5.16387   5.19233   5.20950
 Alpha virt. eigenvalues --    5.25065   5.26070   5.26262   5.29893   5.30948
 Alpha virt. eigenvalues --    5.33993   5.34731   5.35750   5.38069   5.38618
 Alpha virt. eigenvalues --    5.40588   5.42105   5.46456   5.46844   5.49117
 Alpha virt. eigenvalues --    5.49656   5.52979   5.57288   5.59722   5.60838
 Alpha virt. eigenvalues --    5.63850   5.68235   5.68845   5.72298   5.73110
 Alpha virt. eigenvalues --    5.75324   5.76464   5.80459   5.85771   5.87758
 Alpha virt. eigenvalues --    5.91857   5.94727   5.98194   6.01195   6.10710
 Alpha virt. eigenvalues --    6.16563   6.20476   6.25860   6.35952   6.36443
 Alpha virt. eigenvalues --    6.53631   6.58951   6.63522   6.67849   6.89957
 Alpha virt. eigenvalues --    6.90134   6.97030   7.00756   7.19117   7.30568
 Alpha virt. eigenvalues --    7.34111   7.46543  22.62012  22.71022  22.73367
 Alpha virt. eigenvalues --   22.76966  22.80243  23.51683  32.20079  32.22231
 Alpha virt. eigenvalues --   32.30981  32.74997  44.02112  44.08743
          Condensed to atoms (all electrons):
               1          2          3          4          5          6
     1  N    6.771147   0.368695   0.372488   0.056222   0.142776  -0.044780
     2  H    0.368695   0.441823  -0.028764  -0.001654  -0.033599   0.005963
     3  H    0.372488  -0.028764   0.442033  -0.000773  -0.019340  -0.010993
     4  H    0.056222  -0.001654  -0.000773   0.358836  -0.017517   0.001364
     5  C    0.142776  -0.033599  -0.019340  -0.017517   5.404382   0.404193
     6  H   -0.044780   0.005963  -0.010993   0.001364   0.404193   0.578484
     7  C   -0.050567  -0.005873  -0.002930   0.003810   0.223848  -0.035695
     8  H    0.008509   0.000339  -0.000453  -0.000235  -0.044718  -0.003117
     9  H   -0.010418   0.004957  -0.000163  -0.000099  -0.025109   0.008556
    10  C    0.010206  -0.000196   0.001699  -0.000246  -0.041939  -0.003588
    11  H    0.017664   0.003258  -0.000413   0.000005  -0.023983  -0.000815
    12  H   -0.001749   0.000354   0.000412  -0.000046   0.006063   0.003025
    13  C    0.001884  -0.000505   0.000175   0.000005  -0.014357   0.000736
    14  H   -0.000106   0.000051  -0.000006   0.000000   0.001671  -0.000015
    15  H    0.000066   0.000001   0.000048  -0.000001   0.002242  -0.000248
    16  N    0.000116   0.000006   0.000008  -0.000000  -0.000975  -0.000071
    17  H   -0.000184   0.000110   0.000004  -0.000000   0.001141  -0.000057
    18  C    0.000017  -0.000009   0.000000  -0.000000  -0.000163   0.000004
    19  N   -0.000000   0.000002   0.000000   0.000000   0.000024  -0.000001
    20  H   -0.000000   0.000000  -0.000000   0.000000   0.000005   0.000000
    21  H   -0.000001   0.000005   0.000000  -0.000000   0.000028  -0.000001
    22  N   -0.000000   0.000000   0.000000  -0.000000  -0.000002  -0.000000
    23  H   -0.000000  -0.000000   0.000000   0.000000   0.000001  -0.000000
    24  H   -0.000000   0.000000   0.000000  -0.000000   0.000007  -0.000000
    25  C   -0.006159  -0.000620   0.000444  -0.034417   0.233559  -0.014140
    26  O   -0.045386   0.000868   0.000307   0.288906  -0.123785   0.001698
    27  O    0.005319  -0.000022  -0.000214   0.005001  -0.131375   0.002427
               7          8          9         10         11         12
     1  N   -0.050567   0.008509  -0.010418   0.010206   0.017664  -0.001749
     2  H   -0.005873   0.000339   0.004957  -0.000196   0.003258   0.000354
     3  H   -0.002930  -0.000453  -0.000163   0.001699  -0.000413   0.000412
     4  H    0.003810  -0.000235  -0.000099  -0.000246   0.000005  -0.000046
     5  C    0.223848  -0.044718  -0.025109  -0.041939  -0.023983   0.006063
     6  H   -0.035695  -0.003117   0.008556  -0.003588  -0.000815   0.003025
     7  C    5.321474   0.396045   0.389473   0.141956  -0.057384  -0.019911
     8  H    0.396045   0.532306  -0.016336  -0.017197   0.007847  -0.006898
     9  H    0.389473  -0.016336   0.599697  -0.058175  -0.005959   0.008346
    10  C    0.141956  -0.017197  -0.058175   5.297589   0.411762   0.355252
    11  H   -0.057384   0.007847  -0.005959   0.411762   0.667083  -0.042402
    12  H   -0.019911  -0.006898   0.008346   0.355252  -0.042402   0.625040
    13  C   -0.059141   0.005221   0.006423   0.151079  -0.032633  -0.025675
    14  H   -0.027593   0.003453  -0.001381   0.043969   0.012361  -0.013836
    15  H    0.050727  -0.002761   0.004666  -0.097690  -0.014781   0.018704
    16  N    0.011273   0.000125   0.000223  -0.097024  -0.005470   0.018691
    17  H   -0.002402  -0.000150  -0.000385   0.037347   0.019436  -0.000316
    18  C   -0.003459  -0.000089   0.000190  -0.006059  -0.001849  -0.000119
    19  N    0.001636  -0.000004  -0.000144   0.006259  -0.000277   0.000200
    20  H   -0.000140   0.000015  -0.000042   0.001360   0.000038  -0.000134
    21  H    0.000066  -0.000015  -0.000057   0.005453   0.001009   0.000093
    22  N   -0.000115   0.000000  -0.000001  -0.001174  -0.000028  -0.000126
    23  H    0.000076  -0.000002   0.000001  -0.000331  -0.000069   0.000380
    24  H   -0.000001  -0.000003  -0.000001   0.002411   0.000320   0.000224
    25  C   -0.018212  -0.002273  -0.002215  -0.004104  -0.000425   0.000689
    26  O   -0.001463   0.000947   0.002267  -0.000662  -0.000010   0.000012
    27  O    0.011577   0.012348   0.000309  -0.001351  -0.000079   0.000025
              13         14         15         16         17         18
     1  N    0.001884  -0.000106   0.000066   0.000116  -0.000184   0.000017
     2  H   -0.000505   0.000051   0.000001   0.000006   0.000110  -0.000009
     3  H    0.000175  -0.000006   0.000048   0.000008   0.000004   0.000000
     4  H    0.000005   0.000000  -0.000001  -0.000000  -0.000000  -0.000000
     5  C   -0.014357   0.001671   0.002242  -0.000975   0.001141  -0.000163
     6  H    0.000736  -0.000015  -0.000248  -0.000071  -0.000057   0.000004
     7  C   -0.059141  -0.027593   0.050727   0.011273  -0.002402  -0.003459
     8  H    0.005221   0.003453  -0.002761   0.000125  -0.000150  -0.000089
     9  H    0.006423  -0.001381   0.004666   0.000223  -0.000385   0.000190
    10  C    0.151079   0.043969  -0.097690  -0.097024   0.037347  -0.006059
    11  H   -0.032633   0.012361  -0.014781  -0.005470   0.019436  -0.001849
    12  H   -0.025675  -0.013836   0.018704   0.018691  -0.000316  -0.000119
    13  C    5.201869   0.282258   0.343953   0.438753  -0.165705  -0.070195
    14  H    0.282258   0.677541  -0.069244  -0.056002   0.043776   0.036269
    15  H    0.343953  -0.069244   0.869107  -0.103665  -0.005483  -0.036069
    16  N    0.438753  -0.056002  -0.103665   6.825416   0.147063   0.509677
    17  H   -0.165705   0.043776  -0.005483   0.147063   1.004565  -0.272326
    18  C   -0.070195   0.036269  -0.036069   0.509677  -0.272326   5.698914
    19  N    0.016395  -0.002780   0.041026  -0.156138  -0.017582   0.352932
    20  H    0.006481   0.000408  -0.002807   0.007924  -0.001777  -0.076778
    21  H   -0.016355   0.008476   0.007248  -0.044623   0.126869  -0.266704
    22  N    0.006504   0.003186  -0.000288  -0.179143   0.025723   0.405146
    23  H    0.000683  -0.000469   0.000562   0.011070   0.002192  -0.072469
    24  H   -0.007939   0.002724   0.001204  -0.046085   0.102507  -0.244206
    25  C   -0.000314  -0.000137   0.000420  -0.000003   0.000008  -0.000004
    26  O    0.000004  -0.000001  -0.000001  -0.000000  -0.000000   0.000000
    27  O    0.000197  -0.000029  -0.000004  -0.000000   0.000000   0.000000
              19         20         21         22         23         24
     1  N   -0.000000  -0.000000  -0.000001  -0.000000  -0.000000  -0.000000
     2  H    0.000002   0.000000   0.000005   0.000000  -0.000000   0.000000
     3  H    0.000000  -0.000000   0.000000   0.000000   0.000000   0.000000
     4  H    0.000000   0.000000  -0.000000  -0.000000   0.000000  -0.000000
     5  C    0.000024   0.000005   0.000028  -0.000002   0.000001   0.000007
     6  H   -0.000001   0.000000  -0.000001  -0.000000  -0.000000  -0.000000
     7  C    0.001636  -0.000140   0.000066  -0.000115   0.000076  -0.000001
     8  H   -0.000004   0.000015  -0.000015   0.000000  -0.000002  -0.000003
     9  H   -0.000144  -0.000042  -0.000057  -0.000001   0.000001  -0.000001
    10  C    0.006259   0.001360   0.005453  -0.001174  -0.000331   0.002411
    11  H   -0.000277   0.000038   0.001009  -0.000028  -0.000069   0.000320
    12  H    0.000200  -0.000134   0.000093  -0.000126   0.000380   0.000224
    13  C    0.016395   0.006481  -0.016355   0.006504   0.000683  -0.007939
    14  H   -0.002780   0.000408   0.008476   0.003186  -0.000469   0.002724
    15  H    0.041026  -0.002807   0.007248  -0.000288   0.000562   0.001204
    16  N   -0.156138   0.007924  -0.044623  -0.179143   0.011070  -0.046085
    17  H   -0.017582  -0.001777   0.126869   0.025723   0.002192   0.102507
    18  C    0.352932  -0.076778  -0.266704   0.405146  -0.072469  -0.244206
    19  N    6.737484   0.392518   0.228917  -0.092497   0.012550  -0.026296
    20  H    0.392518   0.561514  -0.064705   0.010338  -0.001464  -0.002423
    21  H    0.228917  -0.064705   0.924449  -0.009227   0.000174   0.093642
    22  N   -0.092497   0.010338  -0.009227   6.696014   0.366768   0.277653
    23  H    0.012550  -0.001464   0.000174   0.366768   0.548230  -0.033825
    24  H   -0.026296  -0.002423   0.093642   0.277653  -0.033825   0.831714
    25  C    0.000000  -0.000000   0.000000  -0.000000   0.000000   0.000000
    26  O   -0.000000  -0.000000   0.000000  -0.000000  -0.000000   0.000000
    27  O    0.000000  -0.000000   0.000000   0.000000   0.000000   0.000000
              25         26         27
     1  N   -0.006159  -0.045386   0.005319
     2  H   -0.000620   0.000868  -0.000022
     3  H    0.000444   0.000307  -0.000214
     4  H   -0.034417   0.288906   0.005001
     5  C    0.233559  -0.123785  -0.131375
     6  H   -0.014140   0.001698   0.002427
     7  C   -0.018212  -0.001463   0.011577
     8  H   -0.002273   0.000947   0.012348
     9  H   -0.002215   0.002267   0.000309
    10  C   -0.004104  -0.000662  -0.001351
    11  H   -0.000425  -0.000010  -0.000079
    12  H    0.000689   0.000012   0.000025
    13  C   -0.000314   0.000004   0.000197
    14  H   -0.000137  -0.000001  -0.000029
    15  H    0.000420  -0.000001  -0.000004
    16  N   -0.000003  -0.000000  -0.000000
    17  H    0.000008  -0.000000   0.000000
    18  C   -0.000004   0.000000   0.000000
    19  N    0.000000  -0.000000   0.000000
    20  H   -0.000000  -0.000000  -0.000000
    21  H    0.000000   0.000000   0.000000
    22  N   -0.000000  -0.000000   0.000000
    23  H    0.000000  -0.000000   0.000000
    24  H    0.000000   0.000000   0.000000
    25  C    4.436012   0.392304   0.700651
    26  O    0.392304   7.953863  -0.085405
    27  O    0.700651  -0.085405   7.840551
 Mulliken charges:
               1
     1  N   -0.595756
     2  H    0.244809
     3  H    0.246430
     4  H    0.340839
     5  C    0.056921
     6  H    0.107074
     7  C   -0.267074
     8  H    0.127096
     9  H    0.095378
    10  C   -0.136606
    11  H    0.045793
    12  H    0.073707
    13  C   -0.069803
    14  H    0.055456
    15  H   -0.006930
    16  N   -0.281148
    17  H   -0.044374
    18  C    0.047349
    19  N   -0.494222
    20  H    0.169668
    21  H    0.005259
    22  N   -0.508731
    23  H    0.165942
    24  H    0.048373
    25  C    0.318937
    26  O   -0.384464
    27  O   -0.359924
 Sum of Mulliken charges =  -1.00000
 Mulliken charges with hydrogens summed into heavy atoms:
               1
     1  N   -0.104517
     5  C    0.163995
     7  C   -0.044599
    10  C   -0.017105
    13  C   -0.021277
    16  N   -0.325523
    18  C    0.047349
    19  N   -0.319294
    22  N   -0.294416
    25  C    0.318937
    26  O   -0.043624
    27  O   -0.359924
 Electronic spatial extent (au):  <R**2>=           4290.6688
 Charge=             -1.0000 electrons
 Dipole moment (field-independent basis, Debye):
    X=            -14.1014    Y=              5.7878    Z=              0.8414  Tot=             15.2662
 Quadrupole moment (field-independent basis, Debye-Ang):
   XX=           -197.7499   YY=            -83.6055   ZZ=            -78.4590
   XY=             -2.9296   XZ=              0.4166   YZ=             -1.5129
 Traceless Quadrupole moment (field-independent basis, Debye-Ang):
   XX=            -77.8118   YY=             36.3326   ZZ=             41.4791
   XY=             -2.9296   XZ=              0.4166   YZ=             -1.5129
 Octapole moment (field-independent basis, Debye-Ang**2):
  XXX=           -355.6582  YYY=             21.3260  ZZZ=             -3.1347  XYY=            -20.2447
  XXY=             93.6703  XXZ=             -8.9682  XZZ=            -33.3838  YZZ=              4.7844
  YYZ=              3.6080  XYZ=              4.6072
 Hexadecapole moment (field-independent basis, Debye-Ang**3):
 XXXX=          -8078.1208 YYYY=           -422.1299 ZZZZ=           -266.6858 XXXY=             50.4348
 XXXZ=            -27.3124 YYYX=            -24.7141 YYYZ=             -9.9495 ZZZX=            -33.9375
 ZZZY=             -0.9707 XXYY=          -1044.3173 XXZZ=           -946.8257 YYZZ=           -114.2831
 XXYZ=            -10.8631 YYXZ=             -7.1653 ZZXY=              2.5430
 N-N= 7.113372780837D+02 E-N=-2.854471895782D+03  KE= 6.044130776948D+02
 Unable to Open any file for archive entry.
 1\1\GINC-WATER\SP\RwB97XD\def2TZVP\C6H15N4O2(1-)\DAYALYZ\10-Jun-2025\0
 \\# wB97xD/Def2TZVP SCF(Tight) Int(Grid=299974)\\Displacement_-0.08\\-
 1,1\N,0,-2.449391,1.662106,0.312579\H,0,-1.892601,1.661727,1.158668\H,
 0,-2.080546,2.396181,-0.273303\H,0,-4.177396,1.141286,0.662011\C,0,-2.
 348291,0.354291,-0.351331\H,0,-2.34121,0.525036,-1.432399\C,0,-1.09445
 4,-0.433998,0.018947\H,0,-1.158799,-1.420651,-0.442292\H,0,-1.094388,-
 0.600813,1.103594\C,0,0.189472,0.269027,-0.401511\H,0,0.226249,1.27477
 5,0.033698\H,0,0.202187,0.403801,-1.488111\C,0,1.454987,-0.475381,0.01
 0983\H,0,1.500154,-1.447864,-0.488122\H,0,1.388151,-0.690628,1.097108\
 N,0,2.637813,0.252447,-0.370362\H,0,2.663477,1.14038,0.184021\C,0,3.91
 19,-0.45352,-0.160039\N,0,4.229664,-0.562512,1.250782\H,0,3.542117,-1.
 120361,1.743552\H,0,4.112688,0.365081,1.740639\N,0,4.955003,0.392804,-
 0.715269\H,0,4.675141,0.569368,-1.672612\H,0,4.935428,1.294049,-0.1894
 21\C,0,-3.634014,-0.44553,-0.088747\O,0,-4.586522,0.257947,0.524834\O,
 0,-3.789113,-1.585375,-0.425703\\Version=ES64L-G16RevC.01\State=1-A\HF
 =-607.1319134\RMSD=2.247e-09\Dipole=-5.5476077,2.276997,0.3369753\Quad
 rupole=-57.8519493,27.0199151,30.8320343,-2.16482,0.2891823,-1.1366513
 \PG=C01 [X(C6H15N4O2)]\\@
 The archive entry for this job was punched.


 Everywhere is walking distance if you have the time.
                                    -- Steven Wright
 Job cpu time:       0 days  0 hours 47 minutes 47.4 seconds.
 Elapsed time:       0 days  0 hours 47 minutes 53.6 seconds.
 File lengths (MBytes):  RWF=    118 Int=      0 D2E=      0 Chk=     13 Scr=      1
 Normal termination of Gaussian 16 at Tue Jun 10 14:42:28 2025.
