 Entering Gaussian System, Link 0=g16
 Initial command:
 /opt/gaussian/g16/l1.exe "/scratch/Gau-4165816.inp" -scrdir="/scratch/"
 Entering Link 1 = /opt/gaussian/g16/l1.exe PID=   4165817.
  
 Copyright (c) 1988-2019, Gaussian, Inc.  All Rights Reserved.
  
 This is part of the Gaussian(R) 16 program.  It is based on
 the Gaussian(R) 09 system (copyright 2009, Gaussian, Inc.),
 the Gaussian(R) 03 system (copyright 2003, Gaussian, Inc.),
 the Gaussian(R) 98 system (copyright 1998, Gaussian, Inc.),
 the Gaussian(R) 94 system (copyright 1995, Gaussian, Inc.),
 the Gaussian 92(TM) system (copyright 1992, Gaussian, Inc.),
 the Gaussian 90(TM) system (copyright 1990, Gaussian, Inc.),
 the Gaussian 88(TM) system (copyright 1988, Gaussian, Inc.),
 the Gaussian 86(TM) system (copyright 1986, Carnegie Mellon
 University), and the Gaussian 82(TM) system (copyright 1983,
 Carnegie Mellon University). Gaussian is a federally registered
 trademark of Gaussian, Inc.
  
 This software contains proprietary and confidential information,
 including trade secrets, belonging to Gaussian, Inc.
  
 This software is provided under written license and may be
 used, copied, transmitted, or stored only in accord with that
 written license.
  
 The following legend is applicable only to US Government
 contracts under FAR:
  
                    RESTRICTED RIGHTS LEGEND
  
 Use, reproduction and disclosure by the US Government is
 subject to restrictions as set forth in subparagraphs (a)
 and (c) of the Commercial Computer Software - Restricted
 Rights clause in FAR 52.227-19.
  
 Gaussian, Inc.
 340 Quinnipiac St., Bldg. 40, Wallingford CT 06492
  
  
 ---------------------------------------------------------------
 Warning -- This program may not be used in any manner that
 competes with the business of Gaussian, Inc. or will provide
 assistance to any competitor of Gaussian, Inc.  The licensee
 of this program is prohibited from giving any competitor of
 Gaussian, Inc. access to this program.  By using this program,
 the user acknowledges that Gaussian, Inc. is engaged in the
 business of creating and licensing software in the field of
 computational chemistry and represents and warrants to the
 licensee that it is not a competitor of Gaussian, Inc. and that
 it will not use this program in any manner prohibited above.
 ---------------------------------------------------------------
  

 Cite this work as:
 Gaussian 16, Revision C.01,
 M. J. Frisch, G. W. Trucks, H. B. Schlegel, G. E. Scuseria, 
 M. A. Robb, J. R. Cheeseman, G. Scalmani, V. Barone, 
 G. A. Petersson, H. Nakatsuji, X. Li, M. Caricato, A. V. Marenich, 
 J. Bloino, B. G. Janesko, R. Gomperts, B. Mennucci, H. P. Hratchian, 
 J. V. Ortiz, A. F. Izmaylov, J. L. Sonnenberg, D. Williams-Young, 
 F. Ding, F. Lipparini, F. Egidi, J. Goings, B. Peng, A. Petrone, 
 T. Henderson, D. Ranasinghe, V. G. Zakrzewski, J. Gao, N. Rega, 
 G. Zheng, W. Liang, M. Hada, M. Ehara, K. Toyota, R. Fukuda, 
 J. Hasegawa, M. Ishida, T. Nakajima, Y. Honda, O. Kitao, H. Nakai, 
 T. Vreven, K. Throssell, J. A. Montgomery, Jr., J. E. Peralta, 
 F. Ogliaro, M. J. Bearpark, J. J. Heyd, E. N. Brothers, K. N. Kudin, 
 V. N. Staroverov, T. A. Keith, R. Kobayashi, J. Normand, 
 K. Raghavachari, A. P. Rendell, J. C. Burant, S. S. Iyengar, 
 J. Tomasi, M. Cossi, J. M. Millam, M. Klene, C. Adamo, R. Cammi, 
 J. W. Ochterski, R. L. Martin, K. Morokuma, O. Farkas, 
 J. B. Foresman, and D. J. Fox, Gaussian, Inc., Wallingford CT, 2019.
 
 ******************************************
 Gaussian 16:  ES64L-G16RevC.01  3-Jul-2019
                10-Jun-2025 
 ******************************************
 ---------------------------------------------
 # wB97xD/Def2TZVP SCF(Tight) Int(Grid=299974)
 ---------------------------------------------
 1/38=1,172=1/1;
 2/12=2,17=6,18=5,40=1/2;
 3/5=44,7=101,11=2,25=1,30=1,74=-58,75=299974/1,2,3;
 4//1;
 5/5=2,32=2,38=5/2;
 6/7=2,8=2,9=2,10=2,28=1/1;
 99/5=1,9=1/99;
 --------------
 Displacement_0
 --------------
 Symbolic Z-matrix:
 Charge = -1 Multiplicity = 1
 N                    -2.44939   1.66211   0.31258 
 H                    -1.8926    1.66173   1.15867 
 H                    -2.08055   2.39618  -0.2733 
 H                    -4.1774    1.14129   0.66201 
 C                    -2.34829   0.35429  -0.35133 
 H                    -2.34121   0.52504  -1.4324 
 C                    -1.09445  -0.434     0.01895 
 H                    -1.1588   -1.42065  -0.44229 
 H                    -1.09439  -0.60081   1.10359 
 C                     0.18947   0.26903  -0.40151 
 H                     0.22625   1.27477   0.0337 
 H                     0.20219   0.4038   -1.48811 
 C                     1.45499  -0.47538   0.01098 
 H                     1.50015  -1.44866  -0.48732 
 H                     1.38735  -0.69143   1.09711 
 N                     2.63781   0.25245  -0.37036 
 H                     2.66348   1.14038   0.18482 
 C                     3.9111   -0.45352  -0.15924 
 N                     4.22886  -0.56171   1.25478 
 H                     3.54532  -1.14916   1.71395 
 H                     4.13269   0.38108   1.70544 
 N                     4.9542    0.3896   -0.71367 
 H                     4.68154   0.60537  -1.66541 
 H                     4.93783   1.31405  -0.22142 
 C                    -3.63401  -0.44553  -0.08875 
 O                    -4.58652   0.25795   0.52483 
 O                    -3.78911  -1.58538  -0.4257 
 
                          Input orientation:                          
 ---------------------------------------------------------------------
 Center     Atomic      Atomic             Coordinates (Angstroms)
 Number     Number       Type             X           Y           Z
 ---------------------------------------------------------------------
      1          7           0       -2.449391    1.662106    0.312579
      2          1           0       -1.892601    1.661727    1.158668
      3          1           0       -2.080546    2.396181   -0.273303
      4          1           0       -4.177396    1.141286    0.662011
      5          6           0       -2.348291    0.354291   -0.351331
      6          1           0       -2.341210    0.525036   -1.432399
      7          6           0       -1.094454   -0.433998    0.018947
      8          1           0       -1.158799   -1.420651   -0.442292
      9          1           0       -1.094388   -0.600813    1.103594
     10          6           0        0.189472    0.269027   -0.401511
     11          1           0        0.226249    1.274775    0.033698
     12          1           0        0.202187    0.403801   -1.488111
     13          6           0        1.454987   -0.475381    0.010983
     14          1           0        1.500154   -1.448664   -0.487322
     15          1           0        1.387351   -0.691428    1.097108
     16          7           0        2.637813    0.252447   -0.370362
     17          1           0        2.663477    1.140380    0.184821
     18          6           0        3.911100   -0.453520   -0.159239
     19          7           0        4.228864   -0.561712    1.254782
     20          1           0        3.545317   -1.149161    1.713952
     21          1           0        4.132688    0.381081    1.705439
     22          7           0        4.954203    0.389604   -0.713669
     23          1           0        4.681541    0.605368   -1.665412
     24          1           0        4.937828    1.314049   -0.221421
     25          6           0       -3.634014   -0.445530   -0.088747
     26          8           0       -4.586522    0.257947    0.524834
     27          8           0       -3.789113   -1.585375   -0.425703
 ---------------------------------------------------------------------
                    Distance matrix (angstroms):
                    1          2          3          4          5
     1  N    0.000000
     2  H    1.012858   0.000000
     3  H    1.009044   1.620274   0.000000
     4  H    1.838303   2.395374   2.616554   0.000000
     5  C    1.470162   2.048692   2.060847   2.234244   0.000000
     6  H    2.085565   2.864777   2.216446   2.852700   1.094492
     7  C    2.513111   2.515565   3.011262   3.521304   1.526634
     8  H    3.426200   3.550013   3.930188   4.110345   2.138594
     9  H    2.753641   2.399847   3.442430   3.568591   2.145065
    10  C    3.068255   2.951068   3.113552   4.578368   2.539691
    11  H    2.717876   2.429982   2.583235   4.450246   2.761122
    12  H    3.443353   3.602215   3.264385   4.934334   2.792787
    13  C    4.461387   4.134097   4.563626   5.895862   3.909546
    14  H    5.090740   4.888210   5.258331   6.345343   4.252019
    15  H    4.568938   4.037228   4.841246   5.874909   4.140836
    16  N    5.322893   4.984842   5.183428   6.950029   4.987180
    17  H    5.141006   4.688073   4.928759   6.857496   5.101295
    18  C    6.719697   6.316177   6.635784   8.285024   6.314225
    19  N    7.101563   6.513467   7.133921   8.597487   6.832103
    20  H    6.767835   6.146575   6.940387   8.123609   6.423424
    21  H    6.848711   6.184102   6.824978   8.409765   6.799567
    22  N    7.581929   7.211288   7.328572   9.265183   7.311563
    23  H    7.475248   7.232611   7.132377   9.175231   7.156004
    24  H    7.414668   6.977126   7.101498   9.159564   7.350207
    25  C    2.450821   3.004845   3.243863   1.837631   1.536798
    26  O    2.565939   3.103152   3.389540   0.983102   2.405541
    27  O    3.589714   4.080522   4.335345   2.961176   2.417396
                    6          7          8          9         10
     6  H    0.000000
     7  C    2.140222   0.000000
     8  H    2.482762   1.091039   0.000000
     9  H    3.041934   1.097400   1.751013   0.000000
    10  C    2.744562   1.522989   2.162061   2.161078   0.000000
    11  H    3.050147   2.159717   3.067612   2.531124   1.096489
    12  H    2.546894   2.157408   2.504924   3.067131   1.095000
    13  C    4.182738   2.549789   2.816180   2.776481   1.525065
    14  H    4.420943   2.831580   2.659482   3.159353   2.162340
    15  H    4.666943   2.718098   3.063397   2.483401   2.145518
    16  N    5.098323   3.814785   4.149541   4.102429   2.448595
    17  H    5.295370   4.077772   4.643484   4.242340   2.687702
    18  C    6.455222   5.008763   5.169075   5.164431   3.798853
    19  N    7.181075   5.466380   5.713558   5.325542   4.444111
    20  H    6.881400   4.991190   5.181872   4.711697   4.212854
    21  H    7.195700   5.552623   5.988224   5.352444   4.472219
    22  N    7.331982   6.148276   6.381180   6.392873   4.776468
    23  H    7.027075   6.105691   6.301615   6.517946   4.678595
    24  H    7.421146   6.285051   6.685524   6.466065   4.865325
    25  C    2.102080   2.541869   2.683756   2.809891   3.902238
    26  O    2.990572   3.595726   3.937297   3.642449   4.865014
    27  O    2.750217   2.963877   2.635519   3.251101   4.389593
                   11         12         13         14         15
    11  H    0.000000
    12  H    1.753590   0.000000
    13  C    2.138541   2.142371   0.000000
    14  H    3.051461   2.473444   1.094362   0.000000
    15  H    2.518919   3.047540   1.109468   1.759701   0.000000
    16  N    2.650294   2.684128   1.440220   2.049811   2.146631
    17  H    2.445604   3.065811   2.025179   2.916890   2.411698
    18  C    4.074599   4.031989   2.462102   2.628804   2.829190
    19  N    4.569973   4.966871   3.041198   3.356705   2.848839
    20  H    4.440150   4.882767   2.779130   3.019603   2.290597
    21  H    4.342082   5.064397   3.282498   3.884122   3.009521
    22  N    4.867816   4.814729   3.676660   3.919301   4.143667
    23  H    4.815050   4.487391   3.793279   3.965875   4.490533
    24  H    4.718644   4.985915   3.922531   4.418245   4.285597
    25  C    4.228010   4.170854   5.090066   5.246410   5.165348
    26  O    4.943472   5.196629   6.107507   6.401922   6.075851
    27  O    4.951226   4.584322   5.378045   5.291392   5.469358
                   16         17         18         19         20
    16  N    0.000000
    17  H    1.047527   0.000000
    18  C    1.471130   2.053158   0.000000
    19  N    2.415655   2.548013   1.453319   0.000000
    20  H    2.670662   2.891000   2.031393   1.011519   0.000000
    21  H    2.561279   2.246641   2.054917   1.049381   1.639121
    22  N    2.345706   2.572620   1.451315   2.303458   3.200953
    23  H    2.445104   2.789656   1.995841   3.177188   3.973598
    24  H    2.537568   2.316866   2.045076   2.490037   3.428142
    25  C    6.316826   6.499873   7.545448   7.977683   7.435564
    26  O    7.279589   7.311415   8.554748   8.883451   8.337911
    27  O    6.684761   7.031244   7.787514   8.255899   7.652599
                   21         22         23         24         25
    21  H    0.000000
    22  N    2.554808   0.000000
    23  H    3.422599   1.013269   0.000000
    24  H    2.287241   1.047461   1.628810   0.000000
    25  C    8.013991   8.651326   8.528699   8.751582   0.000000
    26  O    8.799637   9.621676   9.529684   9.611737   1.333654
    27  O    8.435855   8.968224   8.836754   9.198255   1.198683
                   26         27
    26  O    0.000000
    27  O    2.221985   0.000000
 Stoichiometry    C6H15N4O2(1-)
 Framework group  C1[X(C6H15N4O2)]
 Deg. of freedom    75
 Full point group                 C1      NOp   1
 Largest Abelian subgroup         C1      NOp   1
 Largest concise Abelian subgroup C1      NOp   1
                         Standard orientation:                         
 ---------------------------------------------------------------------
 Center     Atomic      Atomic             Coordinates (Angstroms)
 Number     Number       Type             X           Y           Z
 ---------------------------------------------------------------------
      1          7           0       -2.449391    1.662106    0.312579
      2          1           0       -1.892601    1.661727    1.158668
      3          1           0       -2.080546    2.396181   -0.273303
      4          1           0       -4.177396    1.141286    0.662011
      5          6           0       -2.348291    0.354291   -0.351331
      6          1           0       -2.341210    0.525036   -1.432399
      7          6           0       -1.094454   -0.433998    0.018947
      8          1           0       -1.158799   -1.420651   -0.442292
      9          1           0       -1.094388   -0.600813    1.103594
     10          6           0        0.189472    0.269027   -0.401511
     11          1           0        0.226249    1.274775    0.033698
     12          1           0        0.202187    0.403801   -1.488111
     13          6           0        1.454987   -0.475381    0.010983
     14          1           0        1.500154   -1.448664   -0.487322
     15          1           0        1.387351   -0.691428    1.097108
     16          7           0        2.637813    0.252447   -0.370362
     17          1           0        2.663477    1.140380    0.184821
     18          6           0        3.911100   -0.453520   -0.159239
     19          7           0        4.228864   -0.561712    1.254782
     20          1           0        3.545317   -1.149161    1.713952
     21          1           0        4.132688    0.381081    1.705439
     22          7           0        4.954203    0.389604   -0.713669
     23          1           0        4.681541    0.605368   -1.665412
     24          1           0        4.937828    1.314049   -0.221421
     25          6           0       -3.634014   -0.445530   -0.088747
     26          8           0       -4.586522    0.257947    0.524834
     27          8           0       -3.789113   -1.585375   -0.425703
 ---------------------------------------------------------------------
 Rotational constants (GHZ):           2.7669751           0.2562161           0.2486567
 Standard basis: def2TZVP (5D, 7F)
 There are   522 symmetry adapted cartesian basis functions of A   symmetry.
 There are   462 symmetry adapted basis functions of A   symmetry.
   462 basis functions,   732 primitive gaussians,   522 cartesian basis functions
    48 alpha electrons       48 beta electrons
       nuclear repulsion energy       711.3608829715 Hartrees.
 NAtoms=   27 NActive=   27 NUniq=   27 SFac= 1.00D+00 NAtFMM=   60 NAOKFM=F Big=F
 Integral buffers will be    131072 words long.
 Raffenetti 2 integral format.
 Two-electron integral symmetry is turned on.
 Nuclear repulsion after empirical dispersion term =      711.3433739475 Hartrees.
 One-electron integrals computed using PRISM.
   1 Symmetry operations used in ECPInt.
 ECPInt:  NShTT=   18528 NPrTT=   54924 LenC2=   16268 LenP2D=   36013.
 LDataN:  DoStor=T MaxTD1= 6 Len=  172
 NBasis=   462 RedAO= T EigKep=  7.71D-05  NBF=   462
 NBsUse=   462 1.00D-06 EigRej= -1.00D+00 NBFU=   462
 ExpMin= 9.52D-02 ExpMax= 2.70D+04 ExpMxC= 9.22D+02 IAcc=4 IRadAn=    299974 AccDes= 0.00D+00
 Harris functional with IExCor= 4639 and IRadAn=  299974 diagonalized for initial guess.
 HarFok:  IExCor= 4639 AccDes= 0.00D+00 IRadAn=    299974 IDoV= 1 UseB2=F ITyADJ=14
 ICtDFT=  3500011 ScaDFX=  1.000000  1.000000  1.000000  1.000000
 FoFCou: FMM=F IPFlag=           0 FMFlag=      100000 FMFlg1=           0
         NFxFlg=           0 DoJE=T BraDBF=F KetDBF=T FulRan=T
         wScrn=  0.000000 ICntrl=       500 IOpCl=  0 I1Cent=   200000004 NGrid=           0
         NMat0=    1 NMatS0=      1 NMatT0=    0 NMatD0=    1 NMtDS0=    0 NMtDT0=    0
 Petite list used in FoFCou.
 Requested convergence on RMS density matrix=1.00D-08 within 128 cycles.
 Requested convergence on MAX density matrix=1.00D-06.
 Requested convergence on             energy=1.00D-06.
 No special actions if energy rises.
 Integral accuracy reduced to 1.0D-05 until final iterations.
 Initial convergence to 1.0D-05 achieved.  Increase integral accuracy.
 SCF Done:  E(RwB97XD) =  -607.133095285     A.U. after   17 cycles
            NFock= 17  Conv=0.23D-08     -V/T= 2.0045

 **********************************************************************

            Population analysis using the SCF Density.

 **********************************************************************

 Orbital symmetries:
       Occupied  (A) (A) (A) (A) (A) (A) (A) (A) (A) (A) (A) (A)
                 (A) (A) (A) (A) (A) (A) (A) (A) (A) (A) (A) (A)
                 (A) (A) (A) (A) (A) (A) (A) (A) (A) (A) (A) (A)
                 (A) (A) (A) (A) (A) (A) (A) (A) (A) (A) (A) (A)
       Virtual   (A) (A) (A) (A) (A) (A) (A) (A) (A) (A) (A) (A)
                 (A) (A) (A) (A) (A) (A) (A) (A) (A) (A) (A) (A)
                 (A) (A) (A) (A) (A) (A) (A) (A) (A) (A) (A) (A)
                 (A) (A) (A) (A) (A) (A) (A) (A) (A) (A) (A) (A)
                 (A) (A) (A) (A) (A) (A) (A) (A) (A) (A) (A) (A)
                 (A) (A) (A) (A) (A) (A) (A) (A) (A) (A) (A) (A)
                 (A) (A) (A) (A) (A) (A) (A) (A) (A) (A) (A) (A)
                 (A) (A) (A) (A) (A) (A) (A) (A) (A) (A) (A) (A)
                 (A) (A) (A) (A) (A) (A) (A) (A) (A) (A) (A) (A)
                 (A) (A) (A) (A) (A) (A) (A) (A) (A) (A) (A) (A)
                 (A) (A) (A) (A) (A) (A) (A) (A) (A) (A) (A) (A)
                 (A) (A) (A) (A) (A) (A) (A) (A) (A) (A) (A) (A)
                 (A) (A) (A) (A) (A) (A) (A) (A) (A) (A) (A) (A)
                 (A) (A) (A) (A) (A) (A) (A) (A) (A) (A) (A) (A)
                 (A) (A) (A) (A) (A) (A) (A) (A) (A) (A) (A) (A)
                 (A) (A) (A) (A) (A) (A) (A) (A) (A) (A) (A) (A)
                 (A) (A) (A) (A) (A) (A) (A) (A) (A) (A) (A) (A)
                 (A) (A) (A) (A) (A) (A) (A) (A) (A) (A) (A) (A)
                 (A) (A) (A) (A) (A) (A) (A) (A) (A) (A) (A) (A)
                 (A) (A) (A) (A) (A) (A) (A) (A) (A) (A) (A) (A)
                 (A) (A) (A) (A) (A) (A) (A) (A) (A) (A) (A) (A)
                 (A) (A) (A) (A) (A) (A) (A) (A) (A) (A) (A) (A)
                 (A) (A) (A) (A) (A) (A) (A) (A) (A) (A) (A) (A)
                 (A) (A) (A) (A) (A) (A) (A) (A) (A) (A) (A) (A)
                 (A) (A) (A) (A) (A) (A) (A) (A) (A) (A) (A) (A)
                 (A) (A) (A) (A) (A) (A) (A) (A) (A) (A) (A) (A)
                 (A) (A) (A) (A) (A) (A) (A) (A) (A) (A) (A) (A)
                 (A) (A) (A) (A) (A) (A) (A) (A) (A) (A) (A) (A)
                 (A) (A) (A) (A) (A) (A) (A) (A) (A) (A) (A) (A)
                 (A) (A) (A) (A) (A) (A) (A) (A) (A) (A) (A) (A)
                 (A) (A) (A) (A) (A) (A) (A) (A) (A) (A) (A) (A)
                 (A) (A) (A) (A) (A) (A) (A) (A) (A) (A) (A) (A)
                 (A) (A) (A) (A) (A) (A) (A) (A) (A) (A) (A) (A)
                 (A) (A) (A) (A) (A) (A) (A) (A) (A) (A) (A) (A)
                 (A) (A) (A) (A) (A) (A)
 The electronic state is 1-A.
 Alpha  occ. eigenvalues --  -19.20420 -19.14474 -14.37146 -14.23889 -14.22563
 Alpha  occ. eigenvalues --  -14.22148 -10.32612 -10.25466 -10.19389 -10.16786
 Alpha  occ. eigenvalues --  -10.15857 -10.10001  -1.12371  -1.03768  -0.94110
 Alpha  occ. eigenvalues --   -0.85525  -0.80062  -0.77097  -0.73954  -0.71245
 Alpha  occ. eigenvalues --   -0.62975  -0.60593  -0.56964  -0.54592  -0.51430
 Alpha  occ. eigenvalues --   -0.48812  -0.47899  -0.45818  -0.45276  -0.43376
 Alpha  occ. eigenvalues --   -0.41511  -0.40406  -0.39053  -0.37162  -0.36297
 Alpha  occ. eigenvalues --   -0.35106  -0.33792  -0.32680  -0.31886  -0.31192
 Alpha  occ. eigenvalues --   -0.30506  -0.28721  -0.28202  -0.26193  -0.18638
 Alpha  occ. eigenvalues --   -0.15522  -0.11874  -0.03608
 Alpha virt. eigenvalues --    0.15792   0.18122   0.20611   0.22638   0.23400
 Alpha virt. eigenvalues --    0.25097   0.25763   0.26599   0.27625   0.28176
 Alpha virt. eigenvalues --    0.30000   0.30959   0.32239   0.32757   0.33096
 Alpha virt. eigenvalues --    0.35012   0.35182   0.35412   0.36259   0.37530
 Alpha virt. eigenvalues --    0.37814   0.39304   0.40677   0.42156   0.43948
 Alpha virt. eigenvalues --    0.43988   0.44786   0.45632   0.46335   0.47428
 Alpha virt. eigenvalues --    0.47660   0.48630   0.49468   0.50852   0.51405
 Alpha virt. eigenvalues --    0.52582   0.53504   0.53894   0.54825   0.55455
 Alpha virt. eigenvalues --    0.56136   0.56539   0.57414   0.57841   0.59369
 Alpha virt. eigenvalues --    0.59595   0.60764   0.61437   0.61885   0.62408
 Alpha virt. eigenvalues --    0.62766   0.63753   0.63968   0.64801   0.65269
 Alpha virt. eigenvalues --    0.65705   0.66161   0.66896   0.67733   0.69207
 Alpha virt. eigenvalues --    0.69524   0.70044   0.70898   0.71883   0.72060
 Alpha virt. eigenvalues --    0.72093   0.73370   0.73805   0.74470   0.75426
 Alpha virt. eigenvalues --    0.77252   0.78208   0.78701   0.79361   0.80685
 Alpha virt. eigenvalues --    0.82293   0.82416   0.83631   0.84472   0.85998
 Alpha virt. eigenvalues --    0.86146   0.88813   0.90539   0.91054   0.92783
 Alpha virt. eigenvalues --    0.94820   0.96364   0.97964   0.99552   1.00740
 Alpha virt. eigenvalues --    1.02725   1.03975   1.06090   1.06416   1.08102
 Alpha virt. eigenvalues --    1.09106   1.09964   1.10152   1.12968   1.15358
 Alpha virt. eigenvalues --    1.16961   1.17555   1.18765   1.21095   1.22739
 Alpha virt. eigenvalues --    1.23861   1.26240   1.28248   1.29962   1.30741
 Alpha virt. eigenvalues --    1.33302   1.34030   1.36404   1.38070   1.40262
 Alpha virt. eigenvalues --    1.41028   1.43120   1.46327   1.47323   1.48676
 Alpha virt. eigenvalues --    1.49446   1.50657   1.52382   1.52829   1.54011
 Alpha virt. eigenvalues --    1.54939   1.55872   1.57198   1.58205   1.60361
 Alpha virt. eigenvalues --    1.61381   1.63502   1.64819   1.65437   1.66966
 Alpha virt. eigenvalues --    1.67560   1.70145   1.70878   1.72539   1.73618
 Alpha virt. eigenvalues --    1.73868   1.75748   1.77769   1.78326   1.80132
 Alpha virt. eigenvalues --    1.80341   1.81919   1.82967   1.85193   1.86681
 Alpha virt. eigenvalues --    1.88756   1.89478   1.92937   1.94083   1.95331
 Alpha virt. eigenvalues --    1.95478   1.96866   1.98661   1.99271   2.00968
 Alpha virt. eigenvalues --    2.01724   2.04216   2.05276   2.06105   2.07973
 Alpha virt. eigenvalues --    2.09288   2.09957   2.10718   2.11473   2.13386
 Alpha virt. eigenvalues --    2.15579   2.15974   2.16602   2.18417   2.20628
 Alpha virt. eigenvalues --    2.21415   2.22179   2.22780   2.23571   2.25020
 Alpha virt. eigenvalues --    2.25910   2.26420   2.27097   2.28679   2.29306
 Alpha virt. eigenvalues --    2.31679   2.32821   2.33366   2.36857   2.37559
 Alpha virt. eigenvalues --    2.40133   2.40532   2.43656   2.44413   2.45347
 Alpha virt. eigenvalues --    2.46167   2.48351   2.49153   2.51675   2.51895
 Alpha virt. eigenvalues --    2.54768   2.56347   2.58201   2.58651   2.60019
 Alpha virt. eigenvalues --    2.60884   2.62334   2.64999   2.65625   2.67937
 Alpha virt. eigenvalues --    2.68745   2.68981   2.71121   2.72279   2.73815
 Alpha virt. eigenvalues --    2.75023   2.76184   2.77378   2.79148   2.80530
 Alpha virt. eigenvalues --    2.81834   2.82982   2.83751   2.84266   2.86173
 Alpha virt. eigenvalues --    2.88551   2.89450   2.90245   2.90694   2.91171
 Alpha virt. eigenvalues --    2.94305   2.94857   2.95706   2.96484   2.97310
 Alpha virt. eigenvalues --    2.99626   3.03857   3.05089   3.06571   3.07983
 Alpha virt. eigenvalues --    3.09153   3.10289   3.12215   3.13472   3.14643
 Alpha virt. eigenvalues --    3.17077   3.18888   3.21707   3.22533   3.25132
 Alpha virt. eigenvalues --    3.25899   3.26252   3.28748   3.29365   3.30300
 Alpha virt. eigenvalues --    3.31689   3.33694   3.38524   3.38881   3.40889
 Alpha virt. eigenvalues --    3.42077   3.42922   3.44457   3.45180   3.46313
 Alpha virt. eigenvalues --    3.46465   3.48807   3.49869   3.51127   3.51899
 Alpha virt. eigenvalues --    3.52505   3.53621   3.54007   3.56681   3.58788
 Alpha virt. eigenvalues --    3.60231   3.62226   3.63950   3.64826   3.65968
 Alpha virt. eigenvalues --    3.68087   3.69044   3.69579   3.70885   3.74048
 Alpha virt. eigenvalues --    3.75424   3.76514   3.77790   3.81408   3.82022
 Alpha virt. eigenvalues --    3.83530   3.85712   3.86364   3.88444   3.92314
 Alpha virt. eigenvalues --    3.93940   3.95083   3.99590   4.04144   4.04775
 Alpha virt. eigenvalues --    4.05998   4.08003   4.11123   4.12555   4.14016
 Alpha virt. eigenvalues --    4.14103   4.18008   4.20690   4.21074   4.21966
 Alpha virt. eigenvalues --    4.26362   4.31474   4.32730   4.36604   4.37854
 Alpha virt. eigenvalues --    4.40527   4.43755   4.48633   4.51428   4.53648
 Alpha virt. eigenvalues --    4.54326   4.56635   4.58725   4.59613   4.60625
 Alpha virt. eigenvalues --    4.64104   4.66218   4.70263   4.74347   4.74775
 Alpha virt. eigenvalues --    4.77480   4.81547   4.84609   4.88379   4.89806
 Alpha virt. eigenvalues --    4.91607   4.93538   4.97573   4.98697   4.99654
 Alpha virt. eigenvalues --    5.00940   5.01923   5.07498   5.09502   5.10256
 Alpha virt. eigenvalues --    5.11836   5.12866   5.16830   5.19098   5.20761
 Alpha virt. eigenvalues --    5.24770   5.26059   5.27405   5.30366   5.30571
 Alpha virt. eigenvalues --    5.34035   5.35035   5.35402   5.38120   5.38624
 Alpha virt. eigenvalues --    5.40968   5.42149   5.45933   5.46665   5.48772
 Alpha virt. eigenvalues --    5.49614   5.52975   5.56940   5.59680   5.61242
 Alpha virt. eigenvalues --    5.63846   5.68274   5.70099   5.72303   5.73025
 Alpha virt. eigenvalues --    5.74618   5.76349   5.80440   5.86400   5.87754
 Alpha virt. eigenvalues --    5.92932   5.94487   5.96513   6.01194   6.10710
 Alpha virt. eigenvalues --    6.16546   6.20286   6.25859   6.35952   6.36442
 Alpha virt. eigenvalues --    6.53631   6.58951   6.63521   6.67848   6.89957
 Alpha virt. eigenvalues --    6.90134   6.97030   7.00756   7.19117   7.30569
 Alpha virt. eigenvalues --    7.34111   7.46542  22.62021  22.71175  22.73367
 Alpha virt. eigenvalues --   22.76954  22.80066  23.51682  32.20084  32.22236
 Alpha virt. eigenvalues --   32.30811  32.74941  44.02112  44.08742
          Condensed to atoms (all electrons):
               1          2          3          4          5          6
     1  N    6.771184   0.368695   0.372491   0.056221   0.142723  -0.044796
     2  H    0.368695   0.441798  -0.028764  -0.001653  -0.033593   0.005965
     3  H    0.372491  -0.028764   0.442047  -0.000773  -0.019355  -0.010993
     4  H    0.056221  -0.001653  -0.000773   0.358833  -0.017516   0.001364
     5  C    0.142723  -0.033593  -0.019355  -0.017516   5.404291   0.404280
     6  H   -0.044796   0.005965  -0.010993   0.001364   0.404280   0.578482
     7  C   -0.050502  -0.005897  -0.002923   0.003811   0.223561  -0.035741
     8  H    0.008511   0.000338  -0.000453  -0.000234  -0.044729  -0.003123
     9  H   -0.010422   0.004961  -0.000162  -0.000099  -0.025005   0.008548
    10  C    0.010121  -0.000162   0.001700  -0.000245  -0.041377  -0.003582
    11  H    0.017691   0.003246  -0.000418   0.000006  -0.024014  -0.000813
    12  H   -0.001743   0.000351   0.000413  -0.000046   0.006010   0.003026
    13  C    0.001902  -0.000501   0.000176   0.000005  -0.014458   0.000729
    14  H   -0.000106   0.000051  -0.000006   0.000000   0.001675  -0.000012
    15  H    0.000066  -0.000005   0.000048  -0.000001   0.002220  -0.000246
    16  N    0.000117   0.000006   0.000008  -0.000000  -0.000982  -0.000071
    17  H   -0.000183   0.000110   0.000004  -0.000001   0.001144  -0.000056
    18  C    0.000017  -0.000009   0.000000  -0.000000  -0.000157   0.000004
    19  N   -0.000000   0.000002   0.000000   0.000000   0.000025  -0.000001
    20  H   -0.000000   0.000000  -0.000000   0.000000   0.000006   0.000000
    21  H   -0.000001   0.000005   0.000000  -0.000000   0.000027  -0.000001
    22  N   -0.000000   0.000000   0.000000  -0.000000  -0.000002  -0.000000
    23  H   -0.000000  -0.000000   0.000000   0.000000   0.000001  -0.000000
    24  H   -0.000000   0.000000   0.000000  -0.000000   0.000007  -0.000000
    25  C   -0.006138  -0.000624   0.000446  -0.034422   0.233456  -0.014167
    26  O   -0.045385   0.000868   0.000307   0.288908  -0.123788   0.001699
    27  O    0.005318  -0.000022  -0.000214   0.005001  -0.131376   0.002426
               7          8          9         10         11         12
     1  N   -0.050502   0.008511  -0.010422   0.010121   0.017691  -0.001743
     2  H   -0.005897   0.000338   0.004961  -0.000162   0.003246   0.000351
     3  H   -0.002923  -0.000453  -0.000162   0.001700  -0.000418   0.000413
     4  H    0.003811  -0.000234  -0.000099  -0.000245   0.000006  -0.000046
     5  C    0.223561  -0.044729  -0.025005  -0.041377  -0.024014   0.006010
     6  H   -0.035741  -0.003123   0.008548  -0.003582  -0.000813   0.003026
     7  C    5.319523   0.396160   0.389700   0.143189  -0.057216  -0.019888
     8  H    0.396160   0.532384  -0.016371  -0.017442   0.007854  -0.006891
     9  H    0.389700  -0.016371   0.599604  -0.058372  -0.005988   0.008365
    10  C    0.143189  -0.017442  -0.058372   5.298333   0.411710   0.355387
    11  H   -0.057216   0.007854  -0.005988   0.411710   0.667189  -0.042543
    12  H   -0.019888  -0.006891   0.008365   0.355387  -0.042543   0.625067
    13  C   -0.057732   0.005339   0.006303   0.145614  -0.032422  -0.025425
    14  H   -0.027734   0.003430  -0.001395   0.045249   0.012320  -0.014071
    15  H    0.049433  -0.002752   0.004851  -0.095323  -0.014878   0.018665
    16  N    0.011355   0.000133   0.000221  -0.099065  -0.005371   0.018793
    17  H   -0.002431  -0.000157  -0.000382   0.039010   0.019123  -0.000430
    18  C   -0.003063  -0.000090   0.000169  -0.006177  -0.001822  -0.000127
    19  N    0.001557  -0.000005  -0.000140   0.006669  -0.000284   0.000201
    20  H   -0.000152   0.000013  -0.000042   0.001480   0.000058  -0.000129
    21  H    0.000048  -0.000014  -0.000054   0.005600   0.000977   0.000083
    22  N   -0.000112  -0.000000  -0.000001  -0.001158  -0.000044  -0.000132
    23  H    0.000075  -0.000002   0.000001  -0.000365  -0.000077   0.000367
    24  H    0.000001  -0.000003  -0.000001   0.002446   0.000311   0.000225
    25  C   -0.018198  -0.002260  -0.002199  -0.004082  -0.000423   0.000695
    26  O   -0.001460   0.000947   0.002266  -0.000663  -0.000009   0.000012
    27  O    0.011581   0.012346   0.000308  -0.001351  -0.000079   0.000025
              13         14         15         16         17         18
     1  N    0.001902  -0.000106   0.000066   0.000117  -0.000183   0.000017
     2  H   -0.000501   0.000051  -0.000005   0.000006   0.000110  -0.000009
     3  H    0.000176  -0.000006   0.000048   0.000008   0.000004   0.000000
     4  H    0.000005   0.000000  -0.000001  -0.000000  -0.000001  -0.000000
     5  C   -0.014458   0.001675   0.002220  -0.000982   0.001144  -0.000157
     6  H    0.000729  -0.000012  -0.000246  -0.000071  -0.000056   0.000004
     7  C   -0.057732  -0.027734   0.049433   0.011355  -0.002431  -0.003063
     8  H    0.005339   0.003430  -0.002752   0.000133  -0.000157  -0.000090
     9  H    0.006303  -0.001395   0.004851   0.000221  -0.000382   0.000169
    10  C    0.145614   0.045249  -0.095323  -0.099065   0.039010  -0.006177
    11  H   -0.032422   0.012320  -0.014878  -0.005371   0.019123  -0.001822
    12  H   -0.025425  -0.014071   0.018665   0.018793  -0.000430  -0.000127
    13  C    5.206939   0.281929   0.344234   0.437334  -0.165933  -0.068172
    14  H    0.281929   0.677970  -0.070268  -0.055655   0.043834   0.035532
    15  H    0.344234  -0.070268   0.865931  -0.103635  -0.005621  -0.033889
    16  N    0.437334  -0.055655  -0.103635   6.817682   0.147423   0.520304
    17  H   -0.165933   0.043834  -0.005621   0.147423   1.008824  -0.280206
    18  C   -0.068172   0.035532  -0.033889   0.520304  -0.280206   5.698960
    19  N    0.015207  -0.002911   0.040759  -0.160338  -0.016428   0.350845
    20  H    0.005354   0.000896  -0.002484   0.006505  -0.000714  -0.074840
    21  H   -0.016044   0.008354   0.006711  -0.044178   0.127742  -0.273495
    22  N    0.006942   0.003273  -0.000266  -0.176429   0.026064   0.411385
    23  H    0.001016  -0.000541   0.000529   0.013134   0.001555  -0.075698
    24  H   -0.007821   0.002693   0.001201  -0.044895   0.103300  -0.248716
    25  C   -0.000305  -0.000138   0.000417  -0.000002   0.000008  -0.000003
    26  O    0.000004  -0.000001  -0.000001  -0.000000  -0.000000   0.000000
    27  O    0.000197  -0.000029  -0.000004  -0.000000   0.000000   0.000000
              19         20         21         22         23         24
     1  N   -0.000000  -0.000000  -0.000001  -0.000000  -0.000000  -0.000000
     2  H    0.000002   0.000000   0.000005   0.000000  -0.000000   0.000000
     3  H    0.000000  -0.000000   0.000000   0.000000   0.000000   0.000000
     4  H    0.000000   0.000000  -0.000000  -0.000000   0.000000  -0.000000
     5  C    0.000025   0.000006   0.000027  -0.000002   0.000001   0.000007
     6  H   -0.000001   0.000000  -0.000001  -0.000000  -0.000000  -0.000000
     7  C    0.001557  -0.000152   0.000048  -0.000112   0.000075   0.000001
     8  H   -0.000005   0.000013  -0.000014  -0.000000  -0.000002  -0.000003
     9  H   -0.000140  -0.000042  -0.000054  -0.000001   0.000001  -0.000001
    10  C    0.006669   0.001480   0.005600  -0.001158  -0.000365   0.002446
    11  H   -0.000284   0.000058   0.000977  -0.000044  -0.000077   0.000311
    12  H    0.000201  -0.000129   0.000083  -0.000132   0.000367   0.000225
    13  C    0.015207   0.005354  -0.016044   0.006942   0.001016  -0.007821
    14  H   -0.002911   0.000896   0.008354   0.003273  -0.000541   0.002693
    15  H    0.040759  -0.002484   0.006711  -0.000266   0.000529   0.001201
    16  N   -0.160338   0.006505  -0.044178  -0.176429   0.013134  -0.044895
    17  H   -0.016428  -0.000714   0.127742   0.026064   0.001555   0.103300
    18  C    0.350845  -0.074840  -0.273495   0.411385  -0.075698  -0.248716
    19  N    6.736903   0.391159   0.238247  -0.093146   0.013081  -0.025835
    20  H    0.391159   0.550126  -0.056033   0.009858  -0.001457  -0.001708
    21  H    0.238247  -0.056033   0.904286  -0.008190  -0.000292   0.094340
    22  N   -0.093146   0.009858  -0.008190   6.688576   0.367443   0.272310
    23  H    0.013081  -0.001457  -0.000292   0.367443   0.557527  -0.039135
    24  H   -0.025835  -0.001708   0.094340   0.272310  -0.039135   0.849830
    25  C    0.000000  -0.000000   0.000000  -0.000000   0.000000   0.000000
    26  O   -0.000000  -0.000000   0.000000  -0.000000  -0.000000   0.000000
    27  O    0.000000  -0.000000   0.000000   0.000000   0.000000   0.000000
              25         26         27
     1  N   -0.006138  -0.045385   0.005318
     2  H   -0.000624   0.000868  -0.000022
     3  H    0.000446   0.000307  -0.000214
     4  H   -0.034422   0.288908   0.005001
     5  C    0.233456  -0.123788  -0.131376
     6  H   -0.014167   0.001699   0.002426
     7  C   -0.018198  -0.001460   0.011581
     8  H   -0.002260   0.000947   0.012346
     9  H   -0.002199   0.002266   0.000308
    10  C   -0.004082  -0.000663  -0.001351
    11  H   -0.000423  -0.000009  -0.000079
    12  H    0.000695   0.000012   0.000025
    13  C   -0.000305   0.000004   0.000197
    14  H   -0.000138  -0.000001  -0.000029
    15  H    0.000417  -0.000001  -0.000004
    16  N   -0.000002  -0.000000  -0.000000
    17  H    0.000008  -0.000000   0.000000
    18  C   -0.000003   0.000000   0.000000
    19  N    0.000000  -0.000000   0.000000
    20  H   -0.000000  -0.000000  -0.000000
    21  H    0.000000   0.000000   0.000000
    22  N   -0.000000  -0.000000   0.000000
    23  H    0.000000  -0.000000   0.000000
    24  H    0.000000   0.000000   0.000000
    25  C    4.436036   0.392309   0.700653
    26  O    0.392309   7.953853  -0.085405
    27  O    0.700653  -0.085405   7.840556
 Mulliken charges:
               1
     1  N   -0.595780
     2  H    0.244834
     3  H    0.246420
     4  H    0.340841
     5  C    0.056926
     6  H    0.107079
     7  C   -0.266945
     8  H    0.127071
     9  H    0.095334
    10  C   -0.137144
    11  H    0.045920
    12  H    0.073740
    13  C   -0.070411
    14  H    0.055661
    15  H   -0.005691
    16  N   -0.282394
    17  H   -0.045597
    18  C    0.049248
    19  N   -0.495568
    20  H    0.172104
    21  H    0.011882
    22  N   -0.506371
    23  H    0.162838
    24  H    0.041450
    25  C    0.318941
    26  O   -0.384460
    27  O   -0.359930
 Sum of Mulliken charges =  -1.00000
 Mulliken charges with hydrogens summed into heavy atoms:
               1
     1  N   -0.104525
     5  C    0.164005
     7  C   -0.044540
    10  C   -0.017484
    13  C   -0.020441
    16  N   -0.327991
    18  C    0.049248
    19  N   -0.311582
    22  N   -0.302082
    25  C    0.318941
    26  O   -0.043619
    27  O   -0.359930
 Electronic spatial extent (au):  <R**2>=           4291.0035
 Charge=             -1.0000 electrons
 Dipole moment (field-independent basis, Debye):
    X=            -14.0996    Y=              5.7934    Z=              0.8573  Tot=             15.2675
 Quadrupole moment (field-independent basis, Debye-Ang):
   XX=           -197.7483   YY=            -83.4302   ZZ=            -78.6175
   XY=             -2.8506   XZ=              0.4241   YZ=             -1.6389
 Traceless Quadrupole moment (field-independent basis, Debye-Ang):
   XX=            -77.8163   YY=             36.5018   ZZ=             41.3145
   XY=             -2.8506   XZ=              0.4241   YZ=             -1.6389
 Octapole moment (field-independent basis, Debye-Ang**2):
  XXX=           -355.6691  YYY=             21.0455  ZZZ=             -3.1924  XYY=            -19.6471
  XXY=             94.1700  XXZ=             -8.4859  XZZ=            -33.8687  YZZ=              5.0574
  YYZ=              3.7414  XYZ=              4.1410
 Hexadecapole moment (field-independent basis, Debye-Ang**3):
 XXXX=          -8079.9704 YYYY=           -422.5773 ZZZZ=           -267.0088 XXXY=             53.0558
 XXXZ=            -26.0690 YYYX=            -25.5446 YYYZ=            -10.4771 ZZZX=            -33.9184
 ZZZY=             -0.8014 XXYY=          -1042.0596 XXZZ=           -948.4421 YYZZ=           -113.7294
 XXYZ=            -13.4688 YYXZ=             -7.0925 ZZXY=              3.6920
 N-N= 7.113433739475D+02 E-N=-2.854489201362D+03  KE= 6.044167625497D+02
 Unable to Open any file for archive entry.
 1\1\GINC-WATER\SP\RwB97XD\def2TZVP\C6H15N4O2(1-)\DAYALYZ\10-Jun-2025\0
 \\# wB97xD/Def2TZVP SCF(Tight) Int(Grid=299974)\\Displacement_0\\-1,1\
 N,0,-2.449391,1.662106,0.312579\H,0,-1.892601,1.661727,1.158668\H,0,-2
 .080546,2.396181,-0.273303\H,0,-4.177396,1.141286,0.662011\C,0,-2.3482
 91,0.354291,-0.351331\H,0,-2.34121,0.525036,-1.432399\C,0,-1.094454,-0
 .433998,0.018947\H,0,-1.158799,-1.420651,-0.442292\H,0,-1.094388,-0.60
 0813,1.103594\C,0,0.189472,0.269027,-0.401511\H,0,0.226249,1.274775,0.
 033698\H,0,0.202187,0.403801,-1.488111\C,0,1.454987,-0.475381,0.010983
 \H,0,1.500154,-1.448664,-0.487322\H,0,1.387351,-0.691428,1.097108\N,0,
 2.637813,0.252447,-0.370362\H,0,2.663477,1.14038,0.184821\C,0,3.9111,-
 0.45352,-0.159239\N,0,4.228864,-0.561712,1.254782\H,0,3.545317,-1.1491
 61,1.713952\H,0,4.132688,0.381081,1.705439\N,0,4.954203,0.389604,-0.71
 3669\H,0,4.681541,0.605368,-1.665412\H,0,4.937828,1.314049,-0.221421\C
 ,0,-3.634014,-0.44553,-0.088747\O,0,-4.586522,0.257947,0.524834\O,0,-3
 .789113,-1.585375,-0.425703\\Version=ES64L-G16RevC.01\State=1-A\HF=-60
 7.1330953\RMSD=2.250e-09\Dipole=-5.5472057,2.279282,0.3372913\Quadrupo
 le=-57.8545136,27.1382094,30.7163043,-2.1193566,0.315322,-1.2184706\PG
 =C01 [X(C6H15N4O2)]\\@
 The archive entry for this job was punched.


 DO NOT LET SELFISH MEN OR GREEDY INTERESTS SKIN YOUR COUNTRY OF ITS
 BEAUTY, ITS RICHES, OR ITS ROMANCE. -- THEODORE ROOSEVELT
 Job cpu time:       0 days  0 hours 49 minutes 49.3 seconds.
 Elapsed time:       0 days  0 hours 49 minutes 56.1 seconds.
 File lengths (MBytes):  RWF=    118 Int=      0 D2E=      0 Chk=     13 Scr=      1
 Normal termination of Gaussian 16 at Tue Jun 10 21:15:27 2025.
