 Entering Gaussian System, Link 0=g16
 Initial command:
 /opt/gaussian/g16/l1.exe "/scratch/Gau-59763.inp" -scrdir="/scratch/"
 Entering Link 1 = /opt/gaussian/g16/l1.exe PID=     59764.
  
 Copyright (c) 1988-2019, Gaussian, Inc.  All Rights Reserved.
  
 This is part of the Gaussian(R) 16 program.  It is based on
 the Gaussian(R) 09 system (copyright 2009, Gaussian, Inc.),
 the Gaussian(R) 03 system (copyright 2003, Gaussian, Inc.),
 the Gaussian(R) 98 system (copyright 1998, Gaussian, Inc.),
 the Gaussian(R) 94 system (copyright 1995, Gaussian, Inc.),
 the Gaussian 92(TM) system (copyright 1992, Gaussian, Inc.),
 the Gaussian 90(TM) system (copyright 1990, Gaussian, Inc.),
 the Gaussian 88(TM) system (copyright 1988, Gaussian, Inc.),
 the Gaussian 86(TM) system (copyright 1986, Carnegie Mellon
 University), and the Gaussian 82(TM) system (copyright 1983,
 Carnegie Mellon University). Gaussian is a federally registered
 trademark of Gaussian, Inc.
  
 This software contains proprietary and confidential information,
 including trade secrets, belonging to Gaussian, Inc.
  
 This software is provided under written license and may be
 used, copied, transmitted, or stored only in accord with that
 written license.
  
 The following legend is applicable only to US Government
 contracts under FAR:
  
                    RESTRICTED RIGHTS LEGEND
  
 Use, reproduction and disclosure by the US Government is
 subject to restrictions as set forth in subparagraphs (a)
 and (c) of the Commercial Computer Software - Restricted
 Rights clause in FAR 52.227-19.
  
 Gaussian, Inc.
 340 Quinnipiac St., Bldg. 40, Wallingford CT 06492
  
  
 ---------------------------------------------------------------
 Warning -- This program may not be used in any manner that
 competes with the business of Gaussian, Inc. or will provide
 assistance to any competitor of Gaussian, Inc.  The licensee
 of this program is prohibited from giving any competitor of
 Gaussian, Inc. access to this program.  By using this program,
 the user acknowledges that Gaussian, Inc. is engaged in the
 business of creating and licensing software in the field of
 computational chemistry and represents and warrants to the
 licensee that it is not a competitor of Gaussian, Inc. and that
 it will not use this program in any manner prohibited above.
 ---------------------------------------------------------------
  

 Cite this work as:
 Gaussian 16, Revision C.01,
 M. J. Frisch, G. W. Trucks, H. B. Schlegel, G. E. Scuseria, 
 M. A. Robb, J. R. Cheeseman, G. Scalmani, V. Barone, 
 G. A. Petersson, H. Nakatsuji, X. Li, M. Caricato, A. V. Marenich, 
 J. Bloino, B. G. Janesko, R. Gomperts, B. Mennucci, H. P. Hratchian, 
 J. V. Ortiz, A. F. Izmaylov, J. L. Sonnenberg, D. Williams-Young, 
 F. Ding, F. Lipparini, F. Egidi, J. Goings, B. Peng, A. Petrone, 
 T. Henderson, D. Ranasinghe, V. G. Zakrzewski, J. Gao, N. Rega, 
 G. Zheng, W. Liang, M. Hada, M. Ehara, K. Toyota, R. Fukuda, 
 J. Hasegawa, M. Ishida, T. Nakajima, Y. Honda, O. Kitao, H. Nakai, 
 T. Vreven, K. Throssell, J. A. Montgomery, Jr., J. E. Peralta, 
 F. Ogliaro, M. J. Bearpark, J. J. Heyd, E. N. Brothers, K. N. Kudin, 
 V. N. Staroverov, T. A. Keith, R. Kobayashi, J. Normand, 
 K. Raghavachari, A. P. Rendell, J. C. Burant, S. S. Iyengar, 
 J. Tomasi, M. Cossi, J. M. Millam, M. Klene, C. Adamo, R. Cammi, 
 J. W. Ochterski, R. L. Martin, K. Morokuma, O. Farkas, 
 J. B. Foresman, and D. J. Fox, Gaussian, Inc., Wallingford CT, 2019.
 
 ******************************************
 Gaussian 16:  ES64L-G16RevC.01  3-Jul-2019
                10-Jun-2025 
 ******************************************
 ---------------------------------------------
 # wB97xD/Def2TZVP SCF(Tight) Int(Grid=299974)
 ---------------------------------------------
 1/38=1,172=1/1;
 2/12=2,17=6,18=5,40=1/2;
 3/5=44,7=101,11=2,25=1,30=1,74=-58,75=299974/1,2,3;
 4//1;
 5/5=2,32=2,38=5/2;
 6/7=2,8=2,9=2,10=2,28=1/1;
 99/5=1,9=1/99;
 -----------------
 Displacement_0.08
 -----------------
 Symbolic Z-matrix:
 Charge = -1 Multiplicity = 1
 N                    -2.44939   1.66211   0.31258 
 H                    -1.8926    1.66173   1.15867 
 H                    -2.08055   2.39618  -0.2733 
 H                    -4.1774    1.14129   0.66201 
 C                    -2.34829   0.35429  -0.35133 
 H                    -2.34121   0.52504  -1.4324 
 C                    -1.09445  -0.434     0.01895 
 H                    -1.1588   -1.42065  -0.44229 
 H                    -1.09439  -0.60081   1.10359 
 C                     0.18947   0.26903  -0.40151 
 H                     0.22625   1.27477   0.0337 
 H                     0.20219   0.4038   -1.48811 
 C                     1.45499  -0.47538   0.01098 
 H                     1.50015  -1.44946  -0.48652 
 H                     1.38655  -0.69223   1.09711 
 N                     2.63781   0.25245  -0.37036 
 H                     2.66348   1.14038   0.18562 
 C                     3.9103   -0.45352  -0.15844 
 N                     4.22806  -0.56091   1.25878 
 H                     3.54852  -1.17796   1.68435 
 H                     4.15269   0.39708   1.67024 
 N                     4.9534    0.3864   -0.71207 
 H                     4.68794   0.64137  -1.65821 
 H                     4.94023   1.33405  -0.25342 
 C                    -3.63401  -0.44553  -0.08875 
 O                    -4.58652   0.25795   0.52483 
 O                    -3.78911  -1.58538  -0.4257 
 
                          Input orientation:                          
 ---------------------------------------------------------------------
 Center     Atomic      Atomic             Coordinates (Angstroms)
 Number     Number       Type             X           Y           Z
 ---------------------------------------------------------------------
      1          7           0       -2.449391    1.662106    0.312579
      2          1           0       -1.892601    1.661727    1.158668
      3          1           0       -2.080546    2.396181   -0.273303
      4          1           0       -4.177396    1.141286    0.662011
      5          6           0       -2.348291    0.354291   -0.351331
      6          1           0       -2.341210    0.525036   -1.432399
      7          6           0       -1.094454   -0.433998    0.018947
      8          1           0       -1.158799   -1.420651   -0.442292
      9          1           0       -1.094388   -0.600813    1.103594
     10          6           0        0.189472    0.269027   -0.401511
     11          1           0        0.226249    1.274775    0.033698
     12          1           0        0.202187    0.403801   -1.488111
     13          6           0        1.454987   -0.475381    0.010983
     14          1           0        1.500154   -1.449464   -0.486522
     15          1           0        1.386551   -0.692228    1.097108
     16          7           0        2.637813    0.252447   -0.370362
     17          1           0        2.663477    1.140380    0.185621
     18          6           0        3.910300   -0.453520   -0.158439
     19          7           0        4.228064   -0.560912    1.258782
     20          1           0        3.548517   -1.177961    1.684352
     21          1           0        4.152688    0.397081    1.670239
     22          7           0        4.953403    0.386404   -0.712069
     23          1           0        4.687941    0.641368   -1.658212
     24          1           0        4.940228    1.334049   -0.253421
     25          6           0       -3.634014   -0.445530   -0.088747
     26          8           0       -4.586522    0.257947    0.524834
     27          8           0       -3.789113   -1.585375   -0.425703
 ---------------------------------------------------------------------
                    Distance matrix (angstroms):
                    1          2          3          4          5
     1  N    0.000000
     2  H    1.012858   0.000000
     3  H    1.009044   1.620274   0.000000
     4  H    1.838303   2.395374   2.616554   0.000000
     5  C    1.470162   2.048692   2.060847   2.234244   0.000000
     6  H    2.085565   2.864777   2.216446   2.852700   1.094492
     7  C    2.513111   2.515565   3.011262   3.521304   1.526634
     8  H    3.426200   3.550013   3.930188   4.110345   2.138594
     9  H    2.753641   2.399847   3.442430   3.568591   2.145065
    10  C    3.068255   2.951068   3.113552   4.578368   2.539691
    11  H    2.717876   2.429982   2.583235   4.450246   2.761122
    12  H    3.443353   3.602215   3.264385   4.934334   2.792787
    13  C    4.461387   4.134097   4.563626   5.895862   3.909546
    14  H    5.091104   4.888450   5.258884   6.345525   4.252333
    15  H    4.568679   4.037045   4.841184   5.874401   4.140317
    16  N    5.322893   4.984842   5.183428   6.950029   4.987180
    17  H    5.140986   4.687907   4.928834   6.857441   5.101379
    18  C    6.718884   6.315275   6.635075   8.284164   6.313456
    19  N    7.101092   6.512502   7.133740   8.596823   6.832167
    20  H    6.776625   6.160027   6.949335   8.131040   6.423717
    21  H    6.857913   6.197302   6.828394   8.423815   6.808179
    22  N    7.581469   7.210678   7.328585   9.264418   7.310670
    23  H    7.474452   7.230455   7.128096   9.177557   7.162326
    24  H    7.418520   6.984907   7.100689   9.165492   7.354728
    25  C    2.450821   3.004845   3.243863   1.837631   1.536798
    26  O    2.565939   3.103152   3.389540   0.983102   2.405541
    27  O    3.589714   4.080522   4.335345   2.961176   2.417396
                    6          7          8          9         10
     6  H    0.000000
     7  C    2.140222   0.000000
     8  H    2.482762   1.091039   0.000000
     9  H    3.041934   1.097400   1.751013   0.000000
    10  C    2.744562   1.522989   2.162061   2.161078   0.000000
    11  H    3.050147   2.159717   3.067612   2.531124   1.096489
    12  H    2.546894   2.157408   2.504924   3.067131   1.095000
    13  C    4.182738   2.549789   2.816180   2.776481   1.525065
    14  H    4.421472   2.831724   2.659477   3.159165   2.162944
    15  H    4.666513   2.717444   3.062541   2.482631   2.145430
    16  N    5.098323   3.814785   4.149541   4.102429   2.448595
    17  H    5.295614   4.077805   4.643592   4.242167   2.687877
    18  C    6.454605   5.007935   5.168334   5.163461   3.798120
    19  N    7.181720   5.466488   5.714114   5.324863   4.444727
    20  H    6.877734   4.988410   5.171106   4.714546   4.210437
    21  H    7.198156   5.563269   5.998236   5.371097   4.473883
    22  N    7.331403   6.146871   6.379439   6.391166   4.775486
    23  H    7.033739   6.115993   6.317812   6.527321   4.685526
    24  H    7.420501   6.294248   6.694936   6.480877   4.870922
    25  C    2.102080   2.541869   2.683756   2.809891   3.902238
    26  O    2.990572   3.595726   3.937297   3.642449   4.865014
    27  O    2.750217   2.963877   2.635519   3.251101   4.389593
                   11         12         13         14         15
    11  H    0.000000
    12  H    1.753590   0.000000
    13  C    2.138541   2.142371   0.000000
    14  H    3.052039   2.474367   1.094710   0.000000
    15  H    2.519175   3.047516   1.109673   1.759033   0.000000
    16  N    2.650294   2.684128   1.440220   2.050430   2.147449
    17  H    2.445654   3.066248   2.025248   2.917600   2.412426
    18  C    4.073838   4.031517   2.461248   2.628373   2.828902
    19  N    4.570022   4.968277   3.042084   3.358140   2.849136
    20  H    4.447251   4.874876   2.770677   2.997032   2.292354
    21  H    4.343448   5.057833   3.285104   3.885522   3.027637
    22  N    4.867377   4.814208   3.674832   3.917424   4.142343
    23  H    4.813570   4.495260   3.805960   3.988286   4.502160
    24  H    4.723087   4.983859   3.935842   4.431297   4.307940
    25  C    4.228010   4.170854   5.090066   5.246503   5.164609
    26  O    4.943472   5.196629   6.107507   6.402009   6.075190
    27  O    4.951226   4.584322   5.378045   5.291362   5.468470
                   16         17         18         19         20
    16  N    0.000000
    17  H    1.047951   0.000000
    18  C    1.470552   2.052672   0.000000
    19  N    2.417553   2.548333   1.456373   0.000000
    20  H    2.664076   2.898999   2.012854   1.011753   0.000000
    21  H    2.545549   2.230321   2.031339   1.045337   1.687003
    22  N    2.344497   2.572565   1.449152   2.303862   3.188068
    23  H    2.452110   2.783377   2.013163   3.188388   3.972528
    24  H    2.546498   2.326770   2.065230   2.526819   3.464393
    25  C    6.316826   6.499906   7.544640   7.977557   7.434318
    26  O    7.279589   7.311377   8.553890   8.882913   8.341773
    27  O    6.684761   7.031314   7.786751   8.256037   7.645857
                   21         22         23         24         25
    21  H    0.000000
    22  N    2.513295   0.000000
    23  H    3.380053   1.015216   0.000000
    24  H    2.280043   1.052883   1.586472   0.000000
    25  C    8.027251   8.650108   8.538121   8.758518   0.000000
    26  O    8.815050   9.620634   9.535637   9.618869   1.333654
    27  O    8.449574   8.966689   8.850870   9.206200   1.198683
                   26         27
    26  O    0.000000
    27  O    2.221985   0.000000
 Stoichiometry    C6H15N4O2(1-)
 Framework group  C1[X(C6H15N4O2)]
 Deg. of freedom    75
 Full point group                 C1      NOp   1
 Largest Abelian subgroup         C1      NOp   1
 Largest concise Abelian subgroup C1      NOp   1
                         Standard orientation:                         
 ---------------------------------------------------------------------
 Center     Atomic      Atomic             Coordinates (Angstroms)
 Number     Number       Type             X           Y           Z
 ---------------------------------------------------------------------
      1          7           0       -2.449324    1.661328    0.317531
      2          1           0       -1.892668    1.658373    1.163703
      3          1           0       -2.080265    2.397057   -0.266136
      4          1           0       -4.177471    1.139772    0.665161
      5          6           0       -2.348337    0.355449   -0.350198
      6          1           0       -2.341056    0.529365   -1.430759
      7          6           0       -1.094689   -0.434132    0.017963
      8          1           0       -1.159125   -1.419416   -0.446179
      9          1           0       -1.094822   -0.604129    1.102116
     10          6           0        0.189420    0.269910   -0.400228
     11          1           0        0.226295    1.274371    0.037936
     12          1           0        0.202329    0.407870   -1.486425
     13          6           0        1.454746   -0.475916    0.010280
     14          1           0        1.499830   -1.448542   -0.490074
     15          1           0        1.386102   -0.695938    1.095753
     16          7           0        2.637753    0.252831   -0.368742
     17          1           0        2.663477    1.139124    0.189848
     18          6           0        3.910090   -0.453967   -0.158691
     19          7           0        4.227612   -0.565570    1.258259
     20          1           0        3.547895   -1.183752    1.681910
     21          1           0        4.152330    0.391224    1.672514
     22          7           0        4.953420    0.387404   -0.709689
     23          1           0        4.688149    0.645187   -1.655122
     24          1           0        4.940330    1.333701   -0.248265
     25          6           0       -3.634234   -0.444924   -0.090164
     26          8           0       -4.586722    0.256908    0.525328
     27          8           0       -3.789469   -1.583750   -0.430488
 ---------------------------------------------------------------------
 Rotational constants (GHZ):           2.7668168           0.2562327           0.2486418
 Standard basis: def2TZVP (5D, 7F)
 There are   522 symmetry adapted cartesian basis functions of A   symmetry.
 There are   462 symmetry adapted basis functions of A   symmetry.
   462 basis functions,   732 primitive gaussians,   522 cartesian basis functions
    48 alpha electrons       48 beta electrons
       nuclear repulsion energy       711.3407713281 Hartrees.
 NAtoms=   27 NActive=   27 NUniq=   27 SFac= 1.00D+00 NAtFMM=   60 NAOKFM=F Big=F
 Integral buffers will be    131072 words long.
 Raffenetti 2 integral format.
 Two-electron integral symmetry is turned on.
 Nuclear repulsion after empirical dispersion term =      711.3232662948 Hartrees.
 One-electron integrals computed using PRISM.
   1 Symmetry operations used in ECPInt.
 ECPInt:  NShTT=   18528 NPrTT=   54924 LenC2=   16268 LenP2D=   36013.
 LDataN:  DoStor=T MaxTD1= 6 Len=  172
 NBasis=   462 RedAO= T EigKep=  7.71D-05  NBF=   462
 NBsUse=   462 1.00D-06 EigRej= -1.00D+00 NBFU=   462
 ExpMin= 9.52D-02 ExpMax= 2.70D+04 ExpMxC= 9.22D+02 IAcc=4 IRadAn=    299974 AccDes= 0.00D+00
 Harris functional with IExCor= 4639 and IRadAn=  299974 diagonalized for initial guess.
 HarFok:  IExCor= 4639 AccDes= 0.00D+00 IRadAn=    299974 IDoV= 1 UseB2=F ITyADJ=14
 ICtDFT=  3500011 ScaDFX=  1.000000  1.000000  1.000000  1.000000
 FoFCou: FMM=F IPFlag=           0 FMFlag=      100000 FMFlg1=           0
         NFxFlg=           0 DoJE=T BraDBF=F KetDBF=T FulRan=T
         wScrn=  0.000000 ICntrl=       500 IOpCl=  0 I1Cent=   200000004 NGrid=           0
         NMat0=    1 NMatS0=      1 NMatT0=    0 NMatD0=    1 NMtDS0=    0 NMtDT0=    0
 Petite list used in FoFCou.
 Requested convergence on RMS density matrix=1.00D-08 within 128 cycles.
 Requested convergence on MAX density matrix=1.00D-06.
 Requested convergence on             energy=1.00D-06.
 No special actions if energy rises.
 Integral accuracy reduced to 1.0D-05 until final iterations.
 Initial convergence to 1.0D-05 achieved.  Increase integral accuracy.
 SCF Done:  E(RwB97XD) =  -607.131918443     A.U. after   17 cycles
            NFock= 17  Conv=0.23D-08     -V/T= 2.0045

 **********************************************************************

            Population analysis using the SCF Density.

 **********************************************************************

 Orbital symmetries:
       Occupied  (A) (A) (A) (A) (A) (A) (A) (A) (A) (A) (A) (A)
                 (A) (A) (A) (A) (A) (A) (A) (A) (A) (A) (A) (A)
                 (A) (A) (A) (A) (A) (A) (A) (A) (A) (A) (A) (A)
                 (A) (A) (A) (A) (A) (A) (A) (A) (A) (A) (A) (A)
       Virtual   (A) (A) (A) (A) (A) (A) (A) (A) (A) (A) (A) (A)
                 (A) (A) (A) (A) (A) (A) (A) (A) (A) (A) (A) (A)
                 (A) (A) (A) (A) (A) (A) (A) (A) (A) (A) (A) (A)
                 (A) (A) (A) (A) (A) (A) (A) (A) (A) (A) (A) (A)
                 (A) (A) (A) (A) (A) (A) (A) (A) (A) (A) (A) (A)
                 (A) (A) (A) (A) (A) (A) (A) (A) (A) (A) (A) (A)
                 (A) (A) (A) (A) (A) (A) (A) (A) (A) (A) (A) (A)
                 (A) (A) (A) (A) (A) (A) (A) (A) (A) (A) (A) (A)
                 (A) (A) (A) (A) (A) (A) (A) (A) (A) (A) (A) (A)
                 (A) (A) (A) (A) (A) (A) (A) (A) (A) (A) (A) (A)
                 (A) (A) (A) (A) (A) (A) (A) (A) (A) (A) (A) (A)
                 (A) (A) (A) (A) (A) (A) (A) (A) (A) (A) (A) (A)
                 (A) (A) (A) (A) (A) (A) (A) (A) (A) (A) (A) (A)
                 (A) (A) (A) (A) (A) (A) (A) (A) (A) (A) (A) (A)
                 (A) (A) (A) (A) (A) (A) (A) (A) (A) (A) (A) (A)
                 (A) (A) (A) (A) (A) (A) (A) (A) (A) (A) (A) (A)
                 (A) (A) (A) (A) (A) (A) (A) (A) (A) (A) (A) (A)
                 (A) (A) (A) (A) (A) (A) (A) (A) (A) (A) (A) (A)
                 (A) (A) (A) (A) (A) (A) (A) (A) (A) (A) (A) (A)
                 (A) (A) (A) (A) (A) (A) (A) (A) (A) (A) (A) (A)
                 (A) (A) (A) (A) (A) (A) (A) (A) (A) (A) (A) (A)
                 (A) (A) (A) (A) (A) (A) (A) (A) (A) (A) (A) (A)
                 (A) (A) (A) (A) (A) (A) (A) (A) (A) (A) (A) (A)
                 (A) (A) (A) (A) (A) (A) (A) (A) (A) (A) (A) (A)
                 (A) (A) (A) (A) (A) (A) (A) (A) (A) (A) (A) (A)
                 (A) (A) (A) (A) (A) (A) (A) (A) (A) (A) (A) (A)
                 (A) (A) (A) (A) (A) (A) (A) (A) (A) (A) (A) (A)
                 (A) (A) (A) (A) (A) (A) (A) (A) (A) (A) (A) (A)
                 (A) (A) (A) (A) (A) (A) (A) (A) (A) (A) (A) (A)
                 (A) (A) (A) (A) (A) (A) (A) (A) (A) (A) (A) (A)
                 (A) (A) (A) (A) (A) (A) (A) (A) (A) (A) (A) (A)
                 (A) (A) (A) (A) (A) (A) (A) (A) (A) (A) (A) (A)
                 (A) (A) (A) (A) (A) (A) (A) (A) (A) (A) (A) (A)
                 (A) (A) (A) (A) (A) (A) (A) (A) (A) (A) (A) (A)
                 (A) (A) (A) (A) (A) (A)
 The electronic state is 1-A.
 Alpha  occ. eigenvalues --  -19.20422 -19.14476 -14.37148 -14.23912 -14.22524
 Alpha  occ. eigenvalues --  -14.22232 -10.32614 -10.25468 -10.19393 -10.16792
 Alpha  occ. eigenvalues --  -10.15869 -10.10003  -1.12372  -1.03770  -0.94111
 Alpha  occ. eigenvalues --   -0.85538  -0.80063  -0.77099  -0.73927  -0.71250
 Alpha  occ. eigenvalues --   -0.62981  -0.60595  -0.56972  -0.54599  -0.51433
 Alpha  occ. eigenvalues --   -0.48814  -0.47883  -0.45818  -0.45276  -0.43370
 Alpha  occ. eigenvalues --   -0.41590  -0.40412  -0.39068  -0.37235  -0.36360
 Alpha  occ. eigenvalues --   -0.34821  -0.33944  -0.32684  -0.31885  -0.31173
 Alpha  occ. eigenvalues --   -0.30448  -0.28843  -0.28044  -0.26199  -0.18575
 Alpha  occ. eigenvalues --   -0.15573  -0.11879  -0.03616
 Alpha virt. eigenvalues --    0.15790   0.18121   0.20615   0.22634   0.23414
 Alpha virt. eigenvalues --    0.25101   0.25775   0.26600   0.27639   0.28060
 Alpha virt. eigenvalues --    0.29985   0.31005   0.32229   0.32766   0.33060
 Alpha virt. eigenvalues --    0.35044   0.35162   0.35340   0.36259   0.37533
 Alpha virt. eigenvalues --    0.37812   0.39301   0.40661   0.42114   0.43972
 Alpha virt. eigenvalues --    0.43981   0.44773   0.45606   0.46254   0.47422
 Alpha virt. eigenvalues --    0.47736   0.48626   0.49473   0.50861   0.51350
 Alpha virt. eigenvalues --    0.52513   0.53426   0.54081   0.54853   0.55462
 Alpha virt. eigenvalues --    0.56124   0.56238   0.57333   0.57733   0.59352
 Alpha virt. eigenvalues --    0.59567   0.60759   0.61422   0.61798   0.62379
 Alpha virt. eigenvalues --    0.62776   0.63815   0.64027   0.64793   0.65269
 Alpha virt. eigenvalues --    0.65711   0.66216   0.66890   0.67796   0.69028
 Alpha virt. eigenvalues --    0.69611   0.70147   0.70915   0.71881   0.72013
 Alpha virt. eigenvalues --    0.72171   0.73319   0.73840   0.74419   0.75422
 Alpha virt. eigenvalues --    0.77325   0.78243   0.78715   0.79338   0.80684
 Alpha virt. eigenvalues --    0.82190   0.82451   0.83638   0.84496   0.86000
 Alpha virt. eigenvalues --    0.86302   0.88825   0.90491   0.91046   0.92885
 Alpha virt. eigenvalues --    0.94839   0.96356   0.97939   0.99784   1.00864
 Alpha virt. eigenvalues --    1.02309   1.03758   1.06102   1.06362   1.07979
 Alpha virt. eigenvalues --    1.09044   1.09759   1.10169   1.13231   1.15428
 Alpha virt. eigenvalues --    1.17055   1.17409   1.18724   1.21164   1.22777
 Alpha virt. eigenvalues --    1.23766   1.26280   1.28246   1.29806   1.30429
 Alpha virt. eigenvalues --    1.33326   1.33916   1.36449   1.38038   1.40580
 Alpha virt. eigenvalues --    1.41156   1.43172   1.46344   1.47545   1.48703
 Alpha virt. eigenvalues --    1.49429   1.50911   1.52395   1.52718   1.53948
 Alpha virt. eigenvalues --    1.55069   1.55914   1.57209   1.58175   1.60407
 Alpha virt. eigenvalues --    1.61381   1.63424   1.64809   1.65580   1.66698
 Alpha virt. eigenvalues --    1.67376   1.70190   1.70828   1.72381   1.73557
 Alpha virt. eigenvalues --    1.73817   1.75759   1.77734   1.78323   1.80002
 Alpha virt. eigenvalues --    1.80327   1.81920   1.82819   1.85182   1.86756
 Alpha virt. eigenvalues --    1.88768   1.89485   1.92860   1.93593   1.95348
 Alpha virt. eigenvalues --    1.95508   1.97144   1.98698   1.99253   2.00937
 Alpha virt. eigenvalues --    2.02716   2.04022   2.05268   2.06042   2.08067
 Alpha virt. eigenvalues --    2.09425   2.09945   2.10762   2.11468   2.13523
 Alpha virt. eigenvalues --    2.15760   2.16020   2.16609   2.18303   2.20400
 Alpha virt. eigenvalues --    2.21248   2.22109   2.22460   2.23519   2.24987
 Alpha virt. eigenvalues --    2.25671   2.26772   2.27098   2.28718   2.29272
 Alpha virt. eigenvalues --    2.31697   2.32936   2.33707   2.36891   2.37428
 Alpha virt. eigenvalues --    2.40101   2.40442   2.43479   2.44364   2.45368
 Alpha virt. eigenvalues --    2.45959   2.48398   2.48754   2.51433   2.52258
 Alpha virt. eigenvalues --    2.54627   2.56311   2.57894   2.58553   2.60099
 Alpha virt. eigenvalues --    2.60930   2.62222   2.64801   2.65628   2.68151
 Alpha virt. eigenvalues --    2.69020   2.69033   2.70573   2.71531   2.72961
 Alpha virt. eigenvalues --    2.75189   2.76374   2.77600   2.79167   2.80055
 Alpha virt. eigenvalues --    2.81960   2.83126   2.83695   2.84151   2.86414
 Alpha virt. eigenvalues --    2.88868   2.89587   2.90261   2.90763   2.91062
 Alpha virt. eigenvalues --    2.94561   2.94819   2.95677   2.96384   2.97288
 Alpha virt. eigenvalues --    2.99844   3.04015   3.05102   3.06507   3.08083
 Alpha virt. eigenvalues --    3.09162   3.10384   3.12220   3.13438   3.14590
 Alpha virt. eigenvalues --    3.16922   3.18794   3.21501   3.22062   3.25185
 Alpha virt. eigenvalues --    3.25719   3.26135   3.28503   3.29148   3.29871
 Alpha virt. eigenvalues --    3.31525   3.32206   3.37970   3.39011   3.41325
 Alpha virt. eigenvalues --    3.42054   3.42825   3.44952   3.45179   3.46281
 Alpha virt. eigenvalues --    3.46657   3.48771   3.49879   3.51286   3.51823
 Alpha virt. eigenvalues --    3.52619   3.53641   3.54591   3.56644   3.59047
 Alpha virt. eigenvalues --    3.60928   3.62647   3.64041   3.64850   3.66017
 Alpha virt. eigenvalues --    3.68122   3.68928   3.69604   3.70794   3.74083
 Alpha virt. eigenvalues --    3.75424   3.76576   3.77679   3.81449   3.82021
 Alpha virt. eigenvalues --    3.83429   3.85634   3.85903   3.88308   3.91945
 Alpha virt. eigenvalues --    3.93925   3.95052   3.99565   4.04142   4.04824
 Alpha virt. eigenvalues --    4.06151   4.08028   4.11399   4.12413   4.13590
 Alpha virt. eigenvalues --    4.14108   4.18039   4.20546   4.21177   4.21846
 Alpha virt. eigenvalues --    4.26355   4.31471   4.32809   4.36532   4.37677
 Alpha virt. eigenvalues --    4.40521   4.43700   4.48563   4.50581   4.53606
 Alpha virt. eigenvalues --    4.53838   4.58090   4.58741   4.59869   4.61560
 Alpha virt. eigenvalues --    4.64117   4.66349   4.70345   4.74357   4.74712
 Alpha virt. eigenvalues --    4.77579   4.81545   4.84583   4.88288   4.89215
 Alpha virt. eigenvalues --    4.91627   4.93496   4.97441   4.99007   4.99274
 Alpha virt. eigenvalues --    5.01090   5.02170   5.07377   5.09619   5.10244
 Alpha virt. eigenvalues --    5.11897   5.12924   5.16844   5.18583   5.20570
 Alpha virt. eigenvalues --    5.24209   5.26051   5.28415   5.29735   5.30733
 Alpha virt. eigenvalues --    5.34055   5.35010   5.35226   5.38116   5.38560
 Alpha virt. eigenvalues --    5.41455   5.42349   5.44921   5.46691   5.48848
 Alpha virt. eigenvalues --    5.49609   5.52969   5.56585   5.59538   5.61416
 Alpha virt. eigenvalues --    5.63842   5.68268   5.70695   5.72164   5.72326
 Alpha virt. eigenvalues --    5.73904   5.76228   5.80423   5.87064   5.87748
 Alpha virt. eigenvalues --    5.93050   5.94347   5.96744   6.01193   6.10707
 Alpha virt. eigenvalues --    6.16569   6.20150   6.25857   6.35950   6.36440
 Alpha virt. eigenvalues --    6.53630   6.58949   6.63519   6.67846   6.89955
 Alpha virt. eigenvalues --    6.90132   6.97028   7.00754   7.19115   7.30568
 Alpha virt. eigenvalues --    7.34110   7.46541  22.62027  22.71326  22.73364
 Alpha virt. eigenvalues --   22.76939  22.79899  23.51680  32.20081  32.22132
 Alpha virt. eigenvalues --   32.30586  32.74881  44.02110  44.08740
          Condensed to atoms (all electrons):
               1          2          3          4          5          6
     1  N    6.771196   0.368700   0.372495   0.056215   0.142702  -0.044810
     2  H    0.368700   0.441760  -0.028763  -0.001653  -0.033598   0.005968
     3  H    0.372495  -0.028763   0.442056  -0.000773  -0.019374  -0.010993
     4  H    0.056215  -0.001653  -0.000773   0.358824  -0.017512   0.001364
     5  C    0.142702  -0.033598  -0.019374  -0.017512   5.404070   0.404379
     6  H   -0.044810   0.005968  -0.010993   0.001364   0.404379   0.578472
     7  C   -0.050434  -0.005909  -0.002914   0.003811   0.223268  -0.035793
     8  H    0.008512   0.000338  -0.000453  -0.000234  -0.044719  -0.003128
     9  H   -0.010422   0.004964  -0.000161  -0.000098  -0.024899   0.008541
    10  C    0.010028  -0.000135   0.001701  -0.000244  -0.040828  -0.003576
    11  H    0.017713   0.003235  -0.000423   0.000006  -0.024020  -0.000810
    12  H   -0.001734   0.000347   0.000414  -0.000046   0.005940   0.003028
    13  C    0.001916  -0.000495   0.000178   0.000005  -0.014482   0.000719
    14  H   -0.000105   0.000051  -0.000006   0.000000   0.001669  -0.000009
    15  H    0.000066  -0.000010   0.000047  -0.000002   0.002188  -0.000245
    16  N    0.000117   0.000005   0.000008  -0.000000  -0.000984  -0.000071
    17  H   -0.000182   0.000109   0.000004  -0.000001   0.001139  -0.000056
    18  C    0.000017  -0.000009   0.000000  -0.000000  -0.000149   0.000003
    19  N   -0.000000   0.000002   0.000000   0.000000   0.000025  -0.000001
    20  H   -0.000000   0.000000  -0.000000   0.000000   0.000007   0.000000
    21  H   -0.000001   0.000004   0.000000  -0.000000   0.000027  -0.000001
    22  N   -0.000000   0.000000   0.000000  -0.000000  -0.000002  -0.000000
    23  H   -0.000000  -0.000000   0.000000   0.000000   0.000000  -0.000000
    24  H   -0.000000   0.000000   0.000000  -0.000000   0.000007  -0.000000
    25  C   -0.006121  -0.000627   0.000450  -0.034423   0.233380  -0.014192
    26  O   -0.045383   0.000868   0.000307   0.288911  -0.123784   0.001699
    27  O    0.005318  -0.000022  -0.000214   0.005001  -0.131371   0.002424
               7          8          9         10         11         12
     1  N   -0.050434   0.008512  -0.010422   0.010028   0.017713  -0.001734
     2  H   -0.005909   0.000338   0.004964  -0.000135   0.003235   0.000347
     3  H   -0.002914  -0.000453  -0.000161   0.001701  -0.000423   0.000414
     4  H    0.003811  -0.000234  -0.000098  -0.000244   0.000006  -0.000046
     5  C    0.223268  -0.044719  -0.024899  -0.040828  -0.024020   0.005940
     6  H   -0.035793  -0.003128   0.008541  -0.003576  -0.000810   0.003028
     7  C    5.317622   0.396282   0.389895   0.144285  -0.057039  -0.019887
     8  H    0.396282   0.532448  -0.016403  -0.017671   0.007857  -0.006880
     9  H    0.389895  -0.016403   0.599478  -0.058539  -0.006017   0.008383
    10  C    0.144285  -0.017671  -0.058539   5.298984   0.411736   0.355468
    11  H   -0.057039   0.007857  -0.006017   0.411736   0.667183  -0.042672
    12  H   -0.019887  -0.006880   0.008383   0.355468  -0.042672   0.625084
    13  C   -0.056201   0.005400   0.006207   0.140551  -0.032285  -0.025083
    14  H   -0.027837   0.003414  -0.001413   0.046306   0.012271  -0.014314
    15  H    0.048099  -0.002733   0.005022  -0.093079  -0.014932   0.018614
    16  N    0.011459   0.000139   0.000218  -0.100931  -0.005273   0.018887
    17  H   -0.002453  -0.000162  -0.000381   0.040384   0.018778  -0.000559
    18  C   -0.002677  -0.000091   0.000148  -0.005975  -0.001785  -0.000113
    19  N    0.001472  -0.000005  -0.000136   0.006971  -0.000284   0.000203
    20  H   -0.000157   0.000011  -0.000043   0.001631   0.000076  -0.000124
    21  H    0.000034  -0.000014  -0.000052   0.005718   0.000947   0.000074
    22  N   -0.000108  -0.000000  -0.000001  -0.001158  -0.000060  -0.000140
    23  H    0.000074  -0.000002   0.000001  -0.000409  -0.000086   0.000354
    24  H    0.000003  -0.000003  -0.000001   0.002476   0.000301   0.000226
    25  C   -0.018195  -0.002245  -0.002182  -0.004043  -0.000423   0.000700
    26  O   -0.001459   0.000947   0.002264  -0.000664  -0.000009   0.000012
    27  O    0.011585   0.012345   0.000308  -0.001352  -0.000079   0.000025
              13         14         15         16         17         18
     1  N    0.001916  -0.000105   0.000066   0.000117  -0.000182   0.000017
     2  H   -0.000495   0.000051  -0.000010   0.000005   0.000109  -0.000009
     3  H    0.000178  -0.000006   0.000047   0.000008   0.000004   0.000000
     4  H    0.000005   0.000000  -0.000002  -0.000000  -0.000001  -0.000000
     5  C   -0.014482   0.001669   0.002188  -0.000984   0.001139  -0.000149
     6  H    0.000719  -0.000009  -0.000245  -0.000071  -0.000056   0.000003
     7  C   -0.056201  -0.027837   0.048099   0.011459  -0.002453  -0.002677
     8  H    0.005400   0.003414  -0.002733   0.000139  -0.000162  -0.000091
     9  H    0.006207  -0.001413   0.005022   0.000218  -0.000381   0.000148
    10  C    0.140551   0.046306  -0.093079  -0.100931   0.040384  -0.005975
    11  H   -0.032285   0.012271  -0.014932  -0.005273   0.018778  -0.001785
    12  H   -0.025083  -0.014314   0.018614   0.018887  -0.000559  -0.000113
    13  C    5.211241   0.281948   0.344584   0.436144  -0.165757  -0.066677
    14  H    0.281948   0.678258  -0.071210  -0.055327   0.043769   0.034869
    15  H    0.344584  -0.071210   0.862280  -0.103530  -0.005745  -0.031453
    16  N    0.436144  -0.055327  -0.103530   6.810801   0.148226   0.527314
    17  H   -0.165757   0.043769  -0.005745   0.148226   1.011307  -0.286411
    18  C   -0.066677   0.034869  -0.031453   0.527314  -0.286411   5.699768
    19  N    0.013837  -0.003102   0.040175  -0.163431  -0.015644   0.349840
    20  H    0.004189   0.001393  -0.001992   0.004947   0.000308  -0.072969
    21  H   -0.015795   0.008234   0.006315  -0.043888   0.128631  -0.280357
    22  N    0.007435   0.003326  -0.000250  -0.172905   0.025860   0.418705
    23  H    0.001362  -0.000607   0.000492   0.015105   0.000941  -0.079030
    24  H   -0.007710   0.002661   0.001200  -0.043858   0.104143  -0.252907
    25  C   -0.000296  -0.000139   0.000414  -0.000002   0.000008  -0.000003
    26  O    0.000004  -0.000001  -0.000001  -0.000000  -0.000000   0.000000
    27  O    0.000197  -0.000029  -0.000004  -0.000000   0.000000   0.000000
              19         20         21         22         23         24
     1  N   -0.000000  -0.000000  -0.000001  -0.000000  -0.000000  -0.000000
     2  H    0.000002   0.000000   0.000004   0.000000  -0.000000   0.000000
     3  H    0.000000  -0.000000   0.000000   0.000000   0.000000   0.000000
     4  H    0.000000   0.000000  -0.000000  -0.000000   0.000000  -0.000000
     5  C    0.000025   0.000007   0.000027  -0.000002   0.000000   0.000007
     6  H   -0.000001   0.000000  -0.000001  -0.000000  -0.000000  -0.000000
     7  C    0.001472  -0.000157   0.000034  -0.000108   0.000074   0.000003
     8  H   -0.000005   0.000011  -0.000014  -0.000000  -0.000002  -0.000003
     9  H   -0.000136  -0.000043  -0.000052  -0.000001   0.000001  -0.000001
    10  C    0.006971   0.001631   0.005718  -0.001158  -0.000409   0.002476
    11  H   -0.000284   0.000076   0.000947  -0.000060  -0.000086   0.000301
    12  H    0.000203  -0.000124   0.000074  -0.000140   0.000354   0.000226
    13  C    0.013837   0.004189  -0.015795   0.007435   0.001362  -0.007710
    14  H   -0.003102   0.001393   0.008234   0.003326  -0.000607   0.002661
    15  H    0.040175  -0.001992   0.006315  -0.000250   0.000492   0.001200
    16  N   -0.163431   0.004947  -0.043888  -0.172905   0.015105  -0.043858
    17  H   -0.015644   0.000308   0.128631   0.025860   0.000941   0.104143
    18  C    0.349840  -0.072969  -0.280357   0.418705  -0.079030  -0.252907
    19  N    6.739392   0.388277   0.245092  -0.094237   0.013702  -0.025681
    20  H    0.388277   0.540717  -0.047924   0.009481  -0.001467  -0.001080
    21  H    0.245092  -0.047924   0.887908  -0.007401  -0.000808   0.095599
    22  N   -0.094237   0.009481  -0.007401   6.683747   0.366501   0.264424
    23  H    0.013702  -0.001467  -0.000808   0.366501   0.568676  -0.044484
    24  H   -0.025681  -0.001080   0.095599   0.264424  -0.044484   0.870747
    25  C    0.000000  -0.000000   0.000000  -0.000000   0.000000   0.000000
    26  O   -0.000000  -0.000000   0.000000  -0.000000  -0.000000   0.000000
    27  O    0.000000  -0.000000   0.000000   0.000000   0.000000   0.000000
              25         26         27
     1  N   -0.006121  -0.045383   0.005318
     2  H   -0.000627   0.000868  -0.000022
     3  H    0.000450   0.000307  -0.000214
     4  H   -0.034423   0.288911   0.005001
     5  C    0.233380  -0.123784  -0.131371
     6  H   -0.014192   0.001699   0.002424
     7  C   -0.018195  -0.001459   0.011585
     8  H   -0.002245   0.000947   0.012345
     9  H   -0.002182   0.002264   0.000308
    10  C   -0.004043  -0.000664  -0.001352
    11  H   -0.000423  -0.000009  -0.000079
    12  H    0.000700   0.000012   0.000025
    13  C   -0.000296   0.000004   0.000197
    14  H   -0.000139  -0.000001  -0.000029
    15  H    0.000414  -0.000001  -0.000004
    16  N   -0.000002  -0.000000  -0.000000
    17  H    0.000008  -0.000000   0.000000
    18  C   -0.000003   0.000000   0.000000
    19  N    0.000000  -0.000000   0.000000
    20  H   -0.000000  -0.000000  -0.000000
    21  H    0.000000   0.000000   0.000000
    22  N   -0.000000  -0.000000   0.000000
    23  H    0.000000  -0.000000   0.000000
    24  H    0.000000   0.000000   0.000000
    25  C    4.436032   0.392316   0.700646
    26  O    0.392316   7.953826  -0.085404
    27  O    0.700646  -0.085404   7.840562
 Mulliken charges:
               1
     1  N   -0.595801
     2  H    0.244868
     3  H    0.246412
     4  H    0.340849
     5  C    0.056923
     6  H    0.107088
     7  C   -0.266826
     8  H    0.127049
     9  H    0.095318
    10  C   -0.137636
    11  H    0.046096
    12  H    0.073794
    13  C   -0.071139
    14  H    0.055928
    15  H   -0.004311
    16  N   -0.283172
    17  H   -0.046259
    18  C    0.049943
    19  N   -0.496467
    20  H    0.174721
    21  H    0.017656
    22  N   -0.503217
    23  H    0.159684
    24  H    0.033937
    25  C    0.318945
    26  O   -0.384450
    27  O   -0.359935
 Sum of Mulliken charges =  -1.00000
 Mulliken charges with hydrogens summed into heavy atoms:
               1
     1  N   -0.104521
     5  C    0.164011
     7  C   -0.044459
    10  C   -0.017745
    13  C   -0.019521
    16  N   -0.329430
    18  C    0.049943
    19  N   -0.304090
    22  N   -0.309596
    25  C    0.318945
    26  O   -0.043601
    27  O   -0.359935
 Electronic spatial extent (au):  <R**2>=           4291.4395
 Charge=             -1.0000 electrons
 Dipole moment (field-independent basis, Debye):
    X=            -14.1027    Y=              5.7875    Z=              0.8643  Tot=             15.2685
 Quadrupole moment (field-independent basis, Debye-Ang):
   XX=           -197.7790   YY=            -83.2667   ZZ=            -78.8047
   XY=             -2.8301   XZ=              0.3969   YZ=             -1.7636
 Traceless Quadrupole moment (field-independent basis, Debye-Ang):
   XX=            -77.8288   YY=             36.6834   ZZ=             41.1454
   XY=             -2.8301   XZ=              0.3969   YZ=             -1.7636
 Octapole moment (field-independent basis, Debye-Ang**2):
  XXX=           -355.9347  YYY=             20.7165  ZZZ=             -3.2888  XYY=            -19.1203
  XXY=             94.3858  XXZ=             -8.1528  XZZ=            -34.4792  YZZ=              5.3088
  YYZ=              3.8377  XYZ=              3.6670
 Hexadecapole moment (field-independent basis, Debye-Ang**3):
 XXXX=          -8083.4290 YYYY=           -423.1206 ZZZZ=           -267.5911 XXXY=             54.2690
 XXXZ=            -25.4779 YYYX=            -26.6285 YYYZ=            -11.0054 ZZZX=            -34.0388
 ZZZY=             -0.6074 XXYY=          -1040.1713 XXZZ=           -950.6233 YYZZ=           -113.2646
 XXYZ=            -16.1344 YYXZ=             -7.1606 ZZXY=              4.7249
 N-N= 7.113232662948D+02 E-N=-2.854439111296D+03  KE= 6.044103643492D+02
 Unable to Open any file for archive entry.
 1\1\GINC-WATER\SP\RwB97XD\def2TZVP\C6H15N4O2(1-)\DAYALYZ\10-Jun-2025\0
 \\# wB97xD/Def2TZVP SCF(Tight) Int(Grid=299974)\\Displacement_0.08\\-1
 ,1\N,0,-2.449391,1.662106,0.312579\H,0,-1.892601,1.661727,1.158668\H,0
 ,-2.080546,2.396181,-0.273303\H,0,-4.177396,1.141286,0.662011\C,0,-2.3
 48291,0.354291,-0.351331\H,0,-2.34121,0.525036,-1.432399\C,0,-1.094454
 ,-0.433998,0.018947\H,0,-1.158799,-1.420651,-0.442292\H,0,-1.094388,-0
 .600813,1.103594\C,0,0.189472,0.269027,-0.401511\H,0,0.226249,1.274775
 ,0.033698\H,0,0.202187,0.403801,-1.488111\C,0,1.454987,-0.475381,0.010
 983\H,0,1.500154,-1.449464,-0.486522\H,0,1.386551,-0.692228,1.097108\N
 ,0,2.637813,0.252447,-0.370362\H,0,2.663477,1.14038,0.185621\C,0,3.910
 3,-0.45352,-0.158439\N,0,4.228064,-0.560912,1.258782\H,0,3.548517,-1.1
 77961,1.684352\H,0,4.152688,0.397081,1.670239\N,0,4.953403,0.386404,-0
 .712069\H,0,4.687941,0.641368,-1.658212\H,0,4.940228,1.334049,-0.25342
 1\C,0,-3.634014,-0.44553,-0.088747\O,0,-4.586522,0.257947,0.524834\O,0
 ,-3.789113,-1.585375,-0.425703\\Version=ES64L-G16RevC.01\State=1-A\HF=
 -607.1319184\RMSD=2.302e-09\Dipole=-5.5487478,2.2770402,0.3342462\Quad
 rupole=-57.8630269,27.2648494,30.5981775,-2.1175563,0.3154665,-1.30102
 78\PG=C01 [X(C6H15N4O2)]\\@
 The archive entry for this job was punched.


 LORD, MAN... WERE YE BUT WHYLES WHERE I AM, 
 THE GENTILES YE WAD NE'ER ENVY 'EM.        
 IT'S TRUE, THEY NEEDNA STARVE OR SWEAT,     
 THRO' WINTER'S CAULD OR SIMMER'S HEAT...  
 THEY'VE NAE SAIR WARK TO CRAZE THEIR BANES, 
 AND FILL AULD AGE WITH GRIPS AN' GRANES...  
                                             
 BUT HUMAN BODIES ARE SIC FOOLS              
 FOR A' THEIR COLLEGES AND SCHOOLS,           
 THAT WHEN NAE REAL ILLS PERPLEX THEM,       
 THEY MAK ENOW THEMSELVES TO VEX THEM,       
 AN' AYE THE LESS THEY HAE TO STURT THEM,    
 IN LIKE PROPORTION LESS WILL HURT THEM....  
                                             
                (ROBERT BURNS 'THE TWA DOGS')
 Job cpu time:       0 days  0 hours 49 minutes  9.4 seconds.
 Elapsed time:       0 days  0 hours 49 minutes 15.8 seconds.
 File lengths (MBytes):  RWF=    118 Int=      0 D2E=      0 Chk=     13 Scr=      1
 Normal termination of Gaussian 16 at Tue Jun 10 23:43:52 2025.
