 Entering Gaussian System, Link 0=g16
 Initial command:
 /opt/gaussian/g16/l1.exe "/scratch/Gau-3894862.inp" -scrdir="/scratch/"
 Entering Link 1 = /opt/gaussian/g16/l1.exe PID=   3894863.
  
 Copyright (c) 1988-2019, Gaussian, Inc.  All Rights Reserved.
  
 This is part of the Gaussian(R) 16 program.  It is based on
 the Gaussian(R) 09 system (copyright 2009, Gaussian, Inc.),
 the Gaussian(R) 03 system (copyright 2003, Gaussian, Inc.),
 the Gaussian(R) 98 system (copyright 1998, Gaussian, Inc.),
 the Gaussian(R) 94 system (copyright 1995, Gaussian, Inc.),
 the Gaussian 92(TM) system (copyright 1992, Gaussian, Inc.),
 the Gaussian 90(TM) system (copyright 1990, Gaussian, Inc.),
 the Gaussian 88(TM) system (copyright 1988, Gaussian, Inc.),
 the Gaussian 86(TM) system (copyright 1986, Carnegie Mellon
 University), and the Gaussian 82(TM) system (copyright 1983,
 Carnegie Mellon University). Gaussian is a federally registered
 trademark of Gaussian, Inc.
  
 This software contains proprietary and confidential information,
 including trade secrets, belonging to Gaussian, Inc.
  
 This software is provided under written license and may be
 used, copied, transmitted, or stored only in accord with that
 written license.
  
 The following legend is applicable only to US Government
 contracts under FAR:
  
                    RESTRICTED RIGHTS LEGEND
  
 Use, reproduction and disclosure by the US Government is
 subject to restrictions as set forth in subparagraphs (a)
 and (c) of the Commercial Computer Software - Restricted
 Rights clause in FAR 52.227-19.
  
 Gaussian, Inc.
 340 Quinnipiac St., Bldg. 40, Wallingford CT 06492
  
  
 ---------------------------------------------------------------
 Warning -- This program may not be used in any manner that
 competes with the business of Gaussian, Inc. or will provide
 assistance to any competitor of Gaussian, Inc.  The licensee
 of this program is prohibited from giving any competitor of
 Gaussian, Inc. access to this program.  By using this program,
 the user acknowledges that Gaussian, Inc. is engaged in the
 business of creating and licensing software in the field of
 computational chemistry and represents and warrants to the
 licensee that it is not a competitor of Gaussian, Inc. and that
 it will not use this program in any manner prohibited above.
 ---------------------------------------------------------------
  

 Cite this work as:
 Gaussian 16, Revision C.01,
 M. J. Frisch, G. W. Trucks, H. B. Schlegel, G. E. Scuseria, 
 M. A. Robb, J. R. Cheeseman, G. Scalmani, V. Barone, 
 G. A. Petersson, H. Nakatsuji, X. Li, M. Caricato, A. V. Marenich, 
 J. Bloino, B. G. Janesko, R. Gomperts, B. Mennucci, H. P. Hratchian, 
 J. V. Ortiz, A. F. Izmaylov, J. L. Sonnenberg, D. Williams-Young, 
 F. Ding, F. Lipparini, F. Egidi, J. Goings, B. Peng, A. Petrone, 
 T. Henderson, D. Ranasinghe, V. G. Zakrzewski, J. Gao, N. Rega, 
 G. Zheng, W. Liang, M. Hada, M. Ehara, K. Toyota, R. Fukuda, 
 J. Hasegawa, M. Ishida, T. Nakajima, Y. Honda, O. Kitao, H. Nakai, 
 T. Vreven, K. Throssell, J. A. Montgomery, Jr., J. E. Peralta, 
 F. Ogliaro, M. J. Bearpark, J. J. Heyd, E. N. Brothers, K. N. Kudin, 
 V. N. Staroverov, T. A. Keith, R. Kobayashi, J. Normand, 
 K. Raghavachari, A. P. Rendell, J. C. Burant, S. S. Iyengar, 
 J. Tomasi, M. Cossi, J. M. Millam, M. Klene, C. Adamo, R. Cammi, 
 J. W. Ochterski, R. L. Martin, K. Morokuma, O. Farkas, 
 J. B. Foresman, and D. J. Fox, Gaussian, Inc., Wallingford CT, 2019.
 
 ******************************************
 Gaussian 16:  ES64L-G16RevC.01  3-Jul-2019
                10-Jun-2025 
 ******************************************
 ---------------------------------------------
 # wB97xD/Def2TZVP SCF(Tight) Int(Grid=299974)
 ---------------------------------------------
 1/38=1,172=1/1;
 2/12=2,17=6,18=5,40=1/2;
 3/5=44,7=101,11=2,25=1,30=1,74=-58,75=299974/1,2,3;
 4//1;
 5/5=2,32=2,38=5/2;
 6/7=2,8=2,9=2,10=2,28=1/1;
 99/5=1,9=1/99;
 ------------------
 Displacement_-0.09
 ------------------
 Symbolic Z-matrix:
 Charge = -1 Multiplicity = 1
 N                    -2.44939   1.66211   0.31258 
 H                    -1.8926    1.66173   1.15867 
 H                    -2.08055   2.39618  -0.2733 
 H                    -4.1774    1.14129   0.66201 
 C                    -2.34829   0.35429  -0.35133 
 H                    -2.34121   0.52504  -1.4324 
 C                    -1.09445  -0.434     0.01895 
 H                    -1.1588   -1.42065  -0.44229 
 H                    -1.09439  -0.60081   1.10359 
 C                     0.18947   0.26903  -0.40151 
 H                     0.22625   1.27477   0.0337 
 H                     0.20219   0.4038   -1.48811 
 C                     1.45499  -0.47538   0.01098 
 H                     1.50015  -1.44776  -0.48822 
 H                     1.38825  -0.69053   1.09711 
 N                     2.63781   0.25245  -0.37036 
 H                     2.66348   1.14038   0.18392 
 C                     3.912    -0.45352  -0.16014 
 N                     4.22976  -0.56261   1.25028 
 H                     3.54172  -1.11676   1.74725 
 H                     4.11019   0.36308   1.74504 
 N                     4.9551    0.3932   -0.71547 
 H                     4.67434   0.56487  -1.67351 
 H                     4.93513   1.29155  -0.18542 
 C                    -3.63401  -0.44553  -0.08875 
 O                    -4.58652   0.25795   0.52483 
 O                    -3.78911  -1.58538  -0.4257 
 
                          Input orientation:                          
 ---------------------------------------------------------------------
 Center     Atomic      Atomic             Coordinates (Angstroms)
 Number     Number       Type             X           Y           Z
 ---------------------------------------------------------------------
      1          7           0       -2.449391    1.662106    0.312579
      2          1           0       -1.892601    1.661727    1.158668
      3          1           0       -2.080546    2.396181   -0.273303
      4          1           0       -4.177396    1.141286    0.662011
      5          6           0       -2.348291    0.354291   -0.351331
      6          1           0       -2.341210    0.525036   -1.432399
      7          6           0       -1.094454   -0.433998    0.018947
      8          1           0       -1.158799   -1.420651   -0.442292
      9          1           0       -1.094388   -0.600813    1.103594
     10          6           0        0.189472    0.269027   -0.401511
     11          1           0        0.226249    1.274775    0.033698
     12          1           0        0.202187    0.403801   -1.488111
     13          6           0        1.454987   -0.475381    0.010983
     14          1           0        1.500154   -1.447764   -0.488222
     15          1           0        1.388251   -0.690528    1.097108
     16          7           0        2.637813    0.252447   -0.370362
     17          1           0        2.663477    1.140380    0.183921
     18          6           0        3.912000   -0.453520   -0.160139
     19          7           0        4.229764   -0.562612    1.250282
     20          1           0        3.541717   -1.116761    1.747252
     21          1           0        4.110188    0.363081    1.745039
     22          7           0        4.955103    0.393204   -0.715469
     23          1           0        4.674341    0.564868   -1.673512
     24          1           0        4.935128    1.291549   -0.185421
     25          6           0       -3.634014   -0.445530   -0.088747
     26          8           0       -4.586522    0.257947    0.524834
     27          8           0       -3.789113   -1.585375   -0.425703
 ---------------------------------------------------------------------
                    Distance matrix (angstroms):
                    1          2          3          4          5
     1  N    0.000000
     2  H    1.012858   0.000000
     3  H    1.009044   1.620274   0.000000
     4  H    1.838303   2.395374   2.616554   0.000000
     5  C    1.470162   2.048692   2.060847   2.234244   0.000000
     6  H    2.085565   2.864777   2.216446   2.852700   1.094492
     7  C    2.513111   2.515565   3.011262   3.521304   1.526634
     8  H    3.426200   3.550013   3.930188   4.110345   2.138594
     9  H    2.753641   2.399847   3.442430   3.568591   2.145065
    10  C    3.068255   2.951068   3.113552   4.578368   2.539691
    11  H    2.717876   2.429982   2.583235   4.450246   2.761122
    12  H    3.443353   3.602215   3.264385   4.934334   2.792787
    13  C    4.461387   4.134097   4.563626   5.895862   3.909546
    14  H    5.090332   4.887941   5.257710   6.345139   4.251667
    15  H    4.569231   4.037435   4.841317   5.875481   4.141421
    16  N    5.322893   4.984842   5.183428   6.950029   4.987180
    17  H    5.141028   4.688260   4.928676   6.857559   5.101201
    18  C    6.720612   6.317192   6.636581   8.285992   6.315090
    19  N    7.102096   6.514555   7.134128   8.598236   6.832034
    20  H    6.758237   6.131740   6.930602   8.115493   6.423413
    21  H    6.838676   6.169586   6.821465   8.394200   6.790198
    22  N    7.582449   7.211975   7.328560   9.266046   7.312570
    23  H    7.476366   7.235266   7.137422   9.172795   7.149116
    24  H    7.410563   6.968607   7.102649   9.153077   7.345350
    25  C    2.450821   3.004845   3.243863   1.837631   1.536798
    26  O    2.565939   3.103152   3.389540   0.983102   2.405541
    27  O    3.589714   4.080522   4.335345   2.961176   2.417396
                    6          7          8          9         10
     6  H    0.000000
     7  C    2.140222   0.000000
     8  H    2.482762   1.091039   0.000000
     9  H    3.041934   1.097400   1.751013   0.000000
    10  C    2.744562   1.522989   2.162061   2.161078   0.000000
    11  H    3.050147   2.159717   3.067612   2.531124   1.096489
    12  H    2.546894   2.157408   2.504924   3.067131   1.095000
    13  C    4.182738   2.549789   2.816180   2.776481   1.525065
    14  H    4.420349   2.831419   2.659488   3.159565   2.161661
    15  H    4.667428   2.718835   3.064359   2.484268   2.145618
    16  N    5.098323   3.814785   4.149541   4.102429   2.448595
    17  H    5.295095   4.077736   4.643363   4.242535   2.687506
    18  C    6.455916   5.009694   5.169909   5.165524   3.799678
    19  N    7.180352   5.466262   5.712937   5.326309   4.443422
    20  H    6.885819   4.994726   5.194353   4.708924   4.216057
    21  H    7.193252   5.541031   5.977319   5.331806   4.470854
    22  N    7.332636   6.149859   6.383141   6.394795   4.777576
    23  H    7.019806   6.094354   6.283607   6.507639   4.671141
    24  H    7.422102   6.274961   6.675175   6.449625   4.859372
    25  C    2.102080   2.541869   2.683756   2.809891   3.902238
    26  O    2.990572   3.595726   3.937297   3.642449   4.865014
    27  O    2.750217   2.963877   2.635519   3.251101   4.389593
                   11         12         13         14         15
    11  H    0.000000
    12  H    1.753590   0.000000
    13  C    2.138541   2.142371   0.000000
    14  H    3.050812   2.472406   1.093972   0.000000
    15  H    2.518632   3.047566   1.109238   1.760454   0.000000
    16  N    2.650294   2.684128   1.440220   2.049116   2.145711
    17  H    2.445549   3.065320   2.025102   2.916091   2.410879
    18  C    4.075455   4.032520   2.463062   2.629289   2.829514
    19  N    4.569923   4.965292   3.040207   3.355095   2.848512
    20  H    4.432611   4.892049   2.789344   3.045470   2.289493
    21  H    4.341066   5.072217   3.280253   3.883155   2.989791
    22  N    4.868314   4.815319   3.678720   3.921413   4.145159
    23  H    4.817059   4.478892   3.779402   3.940947   4.477805
    24  H    4.714004   4.988570   3.907940   4.403927   4.260733
    25  C    4.228010   4.170854   5.090066   5.246307   5.166181
    26  O    4.943472   5.196629   6.107507   6.401825   6.076596
    27  O    4.951226   4.584322   5.378045   5.291426   5.470357
                   16         17         18         19         20
    16  N    0.000000
    17  H    1.047050   0.000000
    18  C    1.471780   2.053705   0.000000
    19  N    2.413528   2.547658   1.449884   0.000000
    20  H    2.678817   2.882706   2.053080   1.013641   0.000000
    21  H    2.579738   2.265890   2.082263   1.056404   1.585275
    22  N    2.347071   2.572688   1.453753   2.303015   3.215999
    23  H    2.437879   2.797293   1.977012   3.165033   3.976473
    24  H    2.528160   2.306440   2.023041   2.448815   3.387739
    25  C    6.316826   6.499835   7.546356   7.977826   7.437241
    26  O    7.279589   7.311456   8.555714   8.884058   8.333810
    27  O    6.684761   7.031166   7.788373   8.255747   7.660444
                   21         22         23         24         25
    21  H    0.000000
    22  N    2.601709   0.000000
    23  H    3.470660   1.012987   0.000000
    24  H    2.295486   1.043251   1.676452   0.000000
    25  C    7.999330   8.652698   8.518283   8.743968   0.000000
    26  O    8.782523   9.622851   9.523156   9.603885   1.333654
    27  O    8.420663   8.969953   8.821033   9.189494   1.198683
                   26         27
    26  O    0.000000
    27  O    2.221985   0.000000
 Stoichiometry    C6H15N4O2(1-)
 Framework group  C1[X(C6H15N4O2)]
 Deg. of freedom    75
 Full point group                 C1      NOp   1
 Largest Abelian subgroup         C1      NOp   1
 Largest concise Abelian subgroup C1      NOp   1
                         Standard orientation:                         
 ---------------------------------------------------------------------
 Center     Atomic      Atomic             Coordinates (Angstroms)
 Number     Number       Type             X           Y           Z
 ---------------------------------------------------------------------
      1          7           0       -2.449465    1.662989    0.306887
      2          1           0       -1.892526    1.665563    1.152874
      3          1           0       -2.080859    2.395154   -0.281530
      4          1           0       -4.177311    1.143029    0.658377
      5          6           0       -2.348239    0.352963   -0.352631
      6          1           0       -2.341379    0.520066   -1.434269
      7          6           0       -1.094190   -0.433842    0.020080
      8          1           0       -1.158433   -1.422055   -0.437820
      9          1           0       -1.093903   -0.597002    1.105283
     10          6           0        0.189531    0.268000   -0.402971
     11          1           0        0.226198    1.275215    0.028841
     12          1           0        0.202030    0.399114   -1.490021
     13          6           0        1.455257   -0.474780    0.011806
     14          1           0        1.500517   -1.448831   -0.484128
     15          1           0        1.388752   -0.686279    1.098661
     16          7           0        2.637881    0.251978   -0.372198
     17          1           0        2.663478    1.141778    0.179086
     18          6           0        3.912236   -0.453041   -0.159822
     19          7           0        4.230268   -0.557322    1.250902
     20          1           0        3.542411   -1.109920    1.749858
     21          1           0        4.110607    0.370011    1.742559
     22          7           0        4.955084    0.392000   -0.718186
     23          1           0        4.674122    0.560383   -1.676752
     24          1           0        4.935035    1.292122   -0.191164
     25          6           0       -3.633767   -0.446207   -0.087126
     26          8           0       -4.586298    0.259158    0.524249
     27          8           0       -3.788714   -1.587209   -0.420213
 ---------------------------------------------------------------------
 Rotational constants (GHZ):           2.7669203           0.2561962           0.2486723
 Standard basis: def2TZVP (5D, 7F)
 There are   522 symmetry adapted cartesian basis functions of A   symmetry.
 There are   462 symmetry adapted basis functions of A   symmetry.
   462 basis functions,   732 primitive gaussians,   522 cartesian basis functions
    48 alpha electrons       48 beta electrons
       nuclear repulsion energy       711.3521995628 Hartrees.
 NAtoms=   27 NActive=   27 NUniq=   27 SFac= 1.00D+00 NAtFMM=   60 NAOKFM=F Big=F
 Integral buffers will be    131072 words long.
 Raffenetti 2 integral format.
 Two-electron integral symmetry is turned on.
 Nuclear repulsion after empirical dispersion term =      711.3346851087 Hartrees.
 One-electron integrals computed using PRISM.
   1 Symmetry operations used in ECPInt.
 ECPInt:  NShTT=   18528 NPrTT=   54924 LenC2=   16268 LenP2D=   36016.
 LDataN:  DoStor=T MaxTD1= 6 Len=  172
 NBasis=   462 RedAO= T EigKep=  7.72D-05  NBF=   462
 NBsUse=   462 1.00D-06 EigRej= -1.00D+00 NBFU=   462
 ExpMin= 9.52D-02 ExpMax= 2.70D+04 ExpMxC= 9.22D+02 IAcc=4 IRadAn=    299974 AccDes= 0.00D+00
 Harris functional with IExCor= 4639 and IRadAn=  299974 diagonalized for initial guess.
 HarFok:  IExCor= 4639 AccDes= 0.00D+00 IRadAn=    299974 IDoV= 1 UseB2=F ITyADJ=14
 ICtDFT=  3500011 ScaDFX=  1.000000  1.000000  1.000000  1.000000
 FoFCou: FMM=F IPFlag=           0 FMFlag=      100000 FMFlg1=           0
         NFxFlg=           0 DoJE=T BraDBF=F KetDBF=T FulRan=T
         wScrn=  0.000000 ICntrl=       500 IOpCl=  0 I1Cent=   200000004 NGrid=           0
         NMat0=    1 NMatS0=      1 NMatT0=    0 NMatD0=    1 NMtDS0=    0 NMtDT0=    0
 Petite list used in FoFCou.
 Requested convergence on RMS density matrix=1.00D-08 within 128 cycles.
 Requested convergence on MAX density matrix=1.00D-06.
 Requested convergence on             energy=1.00D-06.
 No special actions if energy rises.
 Integral accuracy reduced to 1.0D-05 until final iterations.
 Initial convergence to 1.0D-05 achieved.  Increase integral accuracy.
 SCF Done:  E(RwB97XD) =  -607.131599144     A.U. after   17 cycles
            NFock= 17  Conv=0.22D-08     -V/T= 2.0045

 **********************************************************************

            Population analysis using the SCF Density.

 **********************************************************************

 Orbital symmetries:
       Occupied  (A) (A) (A) (A) (A) (A) (A) (A) (A) (A) (A) (A)
                 (A) (A) (A) (A) (A) (A) (A) (A) (A) (A) (A) (A)
                 (A) (A) (A) (A) (A) (A) (A) (A) (A) (A) (A) (A)
                 (A) (A) (A) (A) (A) (A) (A) (A) (A) (A) (A) (A)
       Virtual   (A) (A) (A) (A) (A) (A) (A) (A) (A) (A) (A) (A)
                 (A) (A) (A) (A) (A) (A) (A) (A) (A) (A) (A) (A)
                 (A) (A) (A) (A) (A) (A) (A) (A) (A) (A) (A) (A)
                 (A) (A) (A) (A) (A) (A) (A) (A) (A) (A) (A) (A)
                 (A) (A) (A) (A) (A) (A) (A) (A) (A) (A) (A) (A)
                 (A) (A) (A) (A) (A) (A) (A) (A) (A) (A) (A) (A)
                 (A) (A) (A) (A) (A) (A) (A) (A) (A) (A) (A) (A)
                 (A) (A) (A) (A) (A) (A) (A) (A) (A) (A) (A) (A)
                 (A) (A) (A) (A) (A) (A) (A) (A) (A) (A) (A) (A)
                 (A) (A) (A) (A) (A) (A) (A) (A) (A) (A) (A) (A)
                 (A) (A) (A) (A) (A) (A) (A) (A) (A) (A) (A) (A)
                 (A) (A) (A) (A) (A) (A) (A) (A) (A) (A) (A) (A)
                 (A) (A) (A) (A) (A) (A) (A) (A) (A) (A) (A) (A)
                 (A) (A) (A) (A) (A) (A) (A) (A) (A) (A) (A) (A)
                 (A) (A) (A) (A) (A) (A) (A) (A) (A) (A) (A) (A)
                 (A) (A) (A) (A) (A) (A) (A) (A) (A) (A) (A) (A)
                 (A) (A) (A) (A) (A) (A) (A) (A) (A) (A) (A) (A)
                 (A) (A) (A) (A) (A) (A) (A) (A) (A) (A) (A) (A)
                 (A) (A) (A) (A) (A) (A) (A) (A) (A) (A) (A) (A)
                 (A) (A) (A) (A) (A) (A) (A) (A) (A) (A) (A) (A)
                 (A) (A) (A) (A) (A) (A) (A) (A) (A) (A) (A) (A)
                 (A) (A) (A) (A) (A) (A) (A) (A) (A) (A) (A) (A)
                 (A) (A) (A) (A) (A) (A) (A) (A) (A) (A) (A) (A)
                 (A) (A) (A) (A) (A) (A) (A) (A) (A) (A) (A) (A)
                 (A) (A) (A) (A) (A) (A) (A) (A) (A) (A) (A) (A)
                 (A) (A) (A) (A) (A) (A) (A) (A) (A) (A) (A) (A)
                 (A) (A) (A) (A) (A) (A) (A) (A) (A) (A) (A) (A)
                 (A) (A) (A) (A) (A) (A) (A) (A) (A) (A) (A) (A)
                 (A) (A) (A) (A) (A) (A) (A) (A) (A) (A) (A) (A)
                 (A) (A) (A) (A) (A) (A) (A) (A) (A) (A) (A) (A)
                 (A) (A) (A) (A) (A) (A) (A) (A) (A) (A) (A) (A)
                 (A) (A) (A) (A) (A) (A) (A) (A) (A) (A) (A) (A)
                 (A) (A) (A) (A) (A) (A) (A) (A) (A) (A) (A) (A)
                 (A) (A) (A) (A) (A) (A) (A) (A) (A) (A) (A) (A)
                 (A) (A) (A) (A) (A) (A)
 The electronic state is 1-A.
 Alpha  occ. eigenvalues --  -19.20420 -19.14474 -14.37146 -14.23875 -14.22662
 Alpha  occ. eigenvalues --  -14.22101 -10.32612 -10.25466 -10.19389 -10.16785
 Alpha  occ. eigenvalues --  -10.15851 -10.10038  -1.12370  -1.03767  -0.94109
 Alpha  occ. eigenvalues --   -0.85521  -0.80063  -0.77096  -0.73958  -0.71242
 Alpha  occ. eigenvalues --   -0.62971  -0.60592  -0.56958  -0.54588  -0.51428
 Alpha  occ. eigenvalues --   -0.48817  -0.47938  -0.45823  -0.45281  -0.43392
 Alpha  occ. eigenvalues --   -0.41511  -0.40410  -0.39169  -0.37130  -0.36215
 Alpha  occ. eigenvalues --   -0.35210  -0.33548  -0.32658  -0.31888  -0.31206
 Alpha  occ. eigenvalues --   -0.30551  -0.28536  -0.28332  -0.26187  -0.18706
 Alpha  occ. eigenvalues --   -0.15470  -0.11873  -0.03617
 Alpha virt. eigenvalues --    0.15792   0.18121   0.20604   0.22639   0.23380
 Alpha virt. eigenvalues --    0.25068   0.25752   0.26594   0.27593   0.28294
 Alpha virt. eigenvalues --    0.29999   0.30879   0.32243   0.32724   0.33128
 Alpha virt. eigenvalues --    0.34945   0.35213   0.35482   0.36247   0.37522
 Alpha virt. eigenvalues --    0.37811   0.39303   0.40689   0.42191   0.43909
 Alpha virt. eigenvalues --    0.43992   0.44784   0.45630   0.46393   0.47412
 Alpha virt. eigenvalues --    0.47577   0.48602   0.49460   0.50831   0.51426
 Alpha virt. eigenvalues --    0.52632   0.53353   0.53818   0.54786   0.55454
 Alpha virt. eigenvalues --    0.56132   0.56778   0.57473   0.58055   0.59378
 Alpha virt. eigenvalues --    0.59631   0.60778   0.61413   0.62006   0.62451
 Alpha virt. eigenvalues --    0.62752   0.63594   0.63957   0.64807   0.65248
 Alpha virt. eigenvalues --    0.65701   0.66089   0.66894   0.67650   0.69257
 Alpha virt. eigenvalues --    0.69403   0.69966   0.70900   0.71831   0.72022
 Alpha virt. eigenvalues --    0.72120   0.73358   0.73743   0.74504   0.75409
 Alpha virt. eigenvalues --    0.77081   0.77965   0.78831   0.79381   0.80674
 Alpha virt. eigenvalues --    0.82129   0.82688   0.83643   0.84451   0.85970
 Alpha virt. eigenvalues --    0.86059   0.88799   0.90545   0.91154   0.92636
 Alpha virt. eigenvalues --    0.94786   0.96388   0.97987   0.99205   1.00673
 Alpha virt. eigenvalues --    1.02927   1.04294   1.06060   1.06589   1.08312
 Alpha virt. eigenvalues --    1.09215   1.10086   1.10380   1.12486   1.15308
 Alpha virt. eigenvalues --    1.16887   1.17711   1.18755   1.20893   1.22670
 Alpha virt. eigenvalues --    1.24006   1.26214   1.28249   1.29960   1.31085
 Alpha virt. eigenvalues --    1.33305   1.34300   1.36339   1.38117   1.39869
 Alpha virt. eigenvalues --    1.40887   1.43050   1.46283   1.46954   1.48620
 Alpha virt. eigenvalues --    1.49456   1.50281   1.52354   1.52973   1.54040
 Alpha virt. eigenvalues --    1.54985   1.55795   1.57179   1.58283   1.60296
 Alpha virt. eigenvalues --    1.61362   1.63528   1.64823   1.65242   1.67293
 Alpha virt. eigenvalues --    1.67774   1.70114   1.70933   1.72650   1.73672
 Alpha virt. eigenvalues --    1.73930   1.75723   1.77806   1.78304   1.80190
 Alpha virt. eigenvalues --    1.80364   1.81915   1.83100   1.85123   1.86534
 Alpha virt. eigenvalues --    1.88736   1.89445   1.92512   1.93320   1.95245
 Alpha virt. eigenvalues --    1.95735   1.96875   1.98600   2.00276   2.00934
 Alpha virt. eigenvalues --    2.01223   2.04451   2.05294   2.05968   2.07848
 Alpha virt. eigenvalues --    2.09102   2.09946   2.10645   2.11485   2.13227
 Alpha virt. eigenvalues --    2.15386   2.15916   2.16590   2.18480   2.20625
 Alpha virt. eigenvalues --    2.21288   2.22035   2.23269   2.23312   2.25038
 Alpha virt. eigenvalues --    2.26128   2.27025   2.27231   2.28602   2.29257
 Alpha virt. eigenvalues --    2.31814   2.32769   2.33128   2.36843   2.37669
 Alpha virt. eigenvalues --    2.39936   2.40615   2.43630   2.44253   2.45312
 Alpha virt. eigenvalues --    2.46339   2.48235   2.49111   2.51561   2.52115
 Alpha virt. eigenvalues --    2.54827   2.56372   2.58359   2.58789   2.59895
 Alpha virt. eigenvalues --    2.60770   2.62368   2.64979   2.65540   2.67047
 Alpha virt. eigenvalues --    2.68477   2.68872   2.71187   2.72609   2.73819
 Alpha virt. eigenvalues --    2.75072   2.75827   2.77324   2.79030   2.81057
 Alpha virt. eigenvalues --    2.81688   2.82940   2.83813   2.84384   2.85851
 Alpha virt. eigenvalues --    2.88921   2.89491   2.90243   2.90662   2.91474
 Alpha virt. eigenvalues --    2.93839   2.94813   2.95803   2.96562   2.97392
 Alpha virt. eigenvalues --    2.99531   3.03551   3.05041   3.06611   3.07796
 Alpha virt. eigenvalues --    3.09138   3.10191   3.12181   3.13318   3.14685
 Alpha virt. eigenvalues --    3.17141   3.18973   3.21670   3.23088   3.24920
 Alpha virt. eigenvalues --    3.25651   3.26528   3.28750   3.29006   3.30293
 Alpha virt. eigenvalues --    3.31288   3.35755   3.38379   3.39483   3.40427
 Alpha virt. eigenvalues --    3.42513   3.43010   3.44627   3.45201   3.46283
 Alpha virt. eigenvalues --    3.46444   3.48861   3.49884   3.50660   3.51868
 Alpha virt. eigenvalues --    3.52659   3.53544   3.53722   3.56757   3.58383
 Alpha virt. eigenvalues --    3.59868   3.62125   3.63951   3.64814   3.65930
 Alpha virt. eigenvalues --    3.68038   3.69228   3.69519   3.70946   3.73920
 Alpha virt. eigenvalues --    3.75395   3.76408   3.77744   3.81348   3.82019
 Alpha virt. eigenvalues --    3.83562   3.85770   3.86825   3.88542   3.92713
 Alpha virt. eigenvalues --    3.93667   3.95191   3.99569   4.04093   4.04678
 Alpha virt. eigenvalues --    4.05825   4.07967   4.10818   4.12628   4.13899
 Alpha virt. eigenvalues --    4.14734   4.17825   4.20895   4.21262   4.22451
 Alpha virt. eigenvalues --    4.26145   4.31299   4.32580   4.36670   4.38087
 Alpha virt. eigenvalues --    4.40543   4.43823   4.48657   4.50504   4.53667
 Alpha virt. eigenvalues --    4.54105   4.56749   4.58768   4.59372   4.61618
 Alpha virt. eigenvalues --    4.64127   4.66108   4.70339   4.74352   4.74879
 Alpha virt. eigenvalues --    4.77445   4.81567   4.84630   4.88400   4.90106
 Alpha virt. eigenvalues --    4.91569   4.93481   4.96615   4.98531   4.99678
 Alpha virt. eigenvalues --    5.01207   5.02180   5.07419   5.09162   5.09918
 Alpha virt. eigenvalues --    5.11780   5.12677   5.16314   5.19220   5.20972
 Alpha virt. eigenvalues --    5.25034   5.26071   5.26176   5.29822   5.30956
 Alpha virt. eigenvalues --    5.33989   5.34687   5.35790   5.38065   5.38608
 Alpha virt. eigenvalues --    5.40558   5.42102   5.46431   5.46912   5.49198
 Alpha virt. eigenvalues --    5.49668   5.52979   5.57331   5.59693   5.60789
 Alpha virt. eigenvalues --    5.63850   5.68210   5.68685   5.72297   5.73101
 Alpha virt. eigenvalues --    5.75325   5.76509   5.80461   5.85724   5.87758
 Alpha virt. eigenvalues --    5.91730   5.94745   5.98466   6.01195   6.10710
 Alpha virt. eigenvalues --    6.16564   6.20508   6.25860   6.35952   6.36443
 Alpha virt. eigenvalues --    6.53631   6.58951   6.63521   6.67849   6.89957
 Alpha virt. eigenvalues --    6.90134   6.97030   7.00756   7.19117   7.30568
 Alpha virt. eigenvalues --    7.34111   7.46543  22.62011  22.71002  22.73367
 Alpha virt. eigenvalues --   22.76967  22.80265  23.51682  32.20078  32.22222
 Alpha virt. eigenvalues --   32.30999  32.75004  44.02112  44.08743
          Condensed to atoms (all electrons):
               1          2          3          4          5          6
     1  N    6.771140   0.368695   0.372487   0.056222   0.142785  -0.044778
     2  H    0.368695   0.441826  -0.028763  -0.001654  -0.033600   0.005962
     3  H    0.372487  -0.028763   0.442031  -0.000773  -0.019338  -0.010993
     4  H    0.056222  -0.001654  -0.000773   0.358836  -0.017517   0.001364
     5  C    0.142785  -0.033600  -0.019338  -0.017517   5.404383   0.404182
     6  H   -0.044778   0.005962  -0.010993   0.001364   0.404182   0.578483
     7  C   -0.050575  -0.005869  -0.002931   0.003810   0.223882  -0.035690
     8  H    0.008508   0.000339  -0.000452  -0.000235  -0.044714  -0.003117
     9  H   -0.010418   0.004956  -0.000163  -0.000099  -0.025122   0.008556
    10  C    0.010216  -0.000200   0.001699  -0.000246  -0.042009  -0.003589
    11  H    0.017661   0.003259  -0.000413   0.000005  -0.023977  -0.000815
    12  H   -0.001750   0.000354   0.000412  -0.000046   0.006068   0.003024
    13  C    0.001882  -0.000505   0.000175   0.000005  -0.014339   0.000737
    14  H   -0.000106   0.000051  -0.000006   0.000000   0.001670  -0.000016
    15  H    0.000066   0.000001   0.000048  -0.000001   0.002243  -0.000248
    16  N    0.000116   0.000006   0.000008  -0.000000  -0.000974  -0.000071
    17  H   -0.000184   0.000110   0.000004  -0.000000   0.001140  -0.000057
    18  C    0.000017  -0.000009   0.000000  -0.000000  -0.000163   0.000004
    19  N   -0.000000   0.000002   0.000000   0.000000   0.000024  -0.000001
    20  H   -0.000000   0.000000  -0.000000   0.000000   0.000005   0.000000
    21  H   -0.000001   0.000005   0.000000  -0.000000   0.000028  -0.000001
    22  N   -0.000000   0.000000   0.000000  -0.000000  -0.000002  -0.000000
    23  H   -0.000000  -0.000000   0.000000   0.000000   0.000001  -0.000000
    24  H   -0.000000   0.000000   0.000000  -0.000000   0.000007  -0.000000
    25  C   -0.006162  -0.000620   0.000443  -0.034416   0.233573  -0.014136
    26  O   -0.045386   0.000868   0.000307   0.288906  -0.123784   0.001697
    27  O    0.005319  -0.000022  -0.000214   0.005001  -0.131374   0.002427
               7          8          9         10         11         12
     1  N   -0.050575   0.008508  -0.010418   0.010216   0.017661  -0.001750
     2  H   -0.005869   0.000339   0.004956  -0.000200   0.003259   0.000354
     3  H   -0.002931  -0.000452  -0.000163   0.001699  -0.000413   0.000412
     4  H    0.003810  -0.000235  -0.000099  -0.000246   0.000005  -0.000046
     5  C    0.223882  -0.044714  -0.025122  -0.042009  -0.023977   0.006068
     6  H   -0.035690  -0.003117   0.008556  -0.003589  -0.000815   0.003024
     7  C    5.321723   0.396032   0.389442   0.141787  -0.057404  -0.019916
     8  H    0.396032   0.532295  -0.016332  -0.017165   0.007846  -0.006899
     9  H    0.389442  -0.016332   0.599707  -0.058148  -0.005955   0.008344
    10  C    0.141787  -0.017165  -0.058148   5.297498   0.411774   0.355231
    11  H   -0.057404   0.007846  -0.005955   0.411774   0.667062  -0.042384
    12  H   -0.019916  -0.006899   0.008344   0.355231  -0.042384   0.625036
    13  C   -0.059305   0.005202   0.006439   0.151784  -0.032664  -0.025700
    14  H   -0.027573   0.003456  -0.001380   0.043794   0.012365  -0.013808
    15  H    0.050885  -0.002762   0.004642  -0.097996  -0.014766   0.018708
    16  N    0.011265   0.000124   0.000224  -0.096758  -0.005482   0.018677
    17  H   -0.002398  -0.000149  -0.000385   0.037122   0.019473  -0.000302
    18  C   -0.003508  -0.000089   0.000192  -0.006020  -0.001852  -0.000117
    19  N    0.001645  -0.000004  -0.000145   0.006199  -0.000276   0.000199
    20  H   -0.000138   0.000015  -0.000042   0.001348   0.000036  -0.000135
    21  H    0.000069  -0.000015  -0.000058   0.005433   0.001014   0.000094
    22  N   -0.000115   0.000000  -0.000001  -0.001177  -0.000026  -0.000125
    23  H    0.000076  -0.000002   0.000001  -0.000327  -0.000068   0.000382
    24  H   -0.000001  -0.000003  -0.000001   0.002406   0.000322   0.000224
    25  C   -0.018215  -0.002274  -0.002217  -0.004106  -0.000425   0.000688
    26  O   -0.001464   0.000947   0.002267  -0.000661  -0.000010   0.000012
    27  O    0.011576   0.012349   0.000309  -0.001350  -0.000079   0.000025
              13         14         15         16         17         18
     1  N    0.001882  -0.000106   0.000066   0.000116  -0.000184   0.000017
     2  H   -0.000505   0.000051   0.000001   0.000006   0.000110  -0.000009
     3  H    0.000175  -0.000006   0.000048   0.000008   0.000004   0.000000
     4  H    0.000005   0.000000  -0.000001  -0.000000  -0.000000  -0.000000
     5  C   -0.014339   0.001670   0.002243  -0.000974   0.001140  -0.000163
     6  H    0.000737  -0.000016  -0.000248  -0.000071  -0.000057   0.000004
     7  C   -0.059305  -0.027573   0.050885   0.011265  -0.002398  -0.003508
     8  H    0.005202   0.003456  -0.002762   0.000124  -0.000149  -0.000089
     9  H    0.006439  -0.001380   0.004642   0.000224  -0.000385   0.000192
    10  C    0.151784   0.043794  -0.097996  -0.096758   0.037122  -0.006020
    11  H   -0.032664   0.012365  -0.014766  -0.005482   0.019473  -0.001852
    12  H   -0.025700  -0.013808   0.018708   0.018677  -0.000302  -0.000117
    13  C    5.201182   0.282323   0.343923   0.438948  -0.165651  -0.070471
    14  H    0.282323   0.677478  -0.069110  -0.056046   0.043760   0.036366
    15  H    0.343923  -0.069110   0.869467  -0.103662  -0.005464  -0.036318
    16  N    0.438948  -0.056046  -0.103662   6.826434   0.147051   0.508101
    17  H   -0.165651   0.043760  -0.005464   0.147051   1.003912  -0.271232
    18  C   -0.070471   0.036366  -0.036318   0.508101  -0.271232   5.698916
    19  N    0.016524  -0.002768   0.041033  -0.155540  -0.017754   0.353323
    20  H    0.006618   0.000348  -0.002835   0.008092  -0.001913  -0.077023
    21  H   -0.016399   0.008492   0.007326  -0.044687   0.126762  -0.265871
    22  N    0.006453   0.003173  -0.000291  -0.179421   0.025646   0.404415
    23  H    0.000643  -0.000459   0.000565   0.010806   0.002274  -0.072075
    24  H   -0.007954   0.002728   0.001204  -0.046246   0.102413  -0.243618
    25  C   -0.000315  -0.000137   0.000420  -0.000003   0.000008  -0.000004
    26  O    0.000004  -0.000001  -0.000001  -0.000000  -0.000000   0.000000
    27  O    0.000197  -0.000030  -0.000004  -0.000000   0.000000   0.000000
              19         20         21         22         23         24
     1  N   -0.000000  -0.000000  -0.000001  -0.000000  -0.000000  -0.000000
     2  H    0.000002   0.000000   0.000005   0.000000  -0.000000   0.000000
     3  H    0.000000  -0.000000   0.000000   0.000000   0.000000   0.000000
     4  H    0.000000   0.000000  -0.000000  -0.000000   0.000000  -0.000000
     5  C    0.000024   0.000005   0.000028  -0.000002   0.000001   0.000007
     6  H   -0.000001   0.000000  -0.000001  -0.000000  -0.000000  -0.000000
     7  C    0.001645  -0.000138   0.000069  -0.000115   0.000076  -0.000001
     8  H   -0.000004   0.000015  -0.000015   0.000000  -0.000002  -0.000003
     9  H   -0.000145  -0.000042  -0.000058  -0.000001   0.000001  -0.000001
    10  C    0.006199   0.001348   0.005433  -0.001177  -0.000327   0.002406
    11  H   -0.000276   0.000036   0.001014  -0.000026  -0.000068   0.000322
    12  H    0.000199  -0.000135   0.000094  -0.000125   0.000382   0.000224
    13  C    0.016524   0.006618  -0.016399   0.006453   0.000643  -0.007954
    14  H   -0.002768   0.000348   0.008492   0.003173  -0.000459   0.002728
    15  H    0.041033  -0.002835   0.007326  -0.000291   0.000565   0.001204
    16  N   -0.155540   0.008092  -0.044687  -0.179421   0.010806  -0.046246
    17  H   -0.017754  -0.001913   0.126762   0.025646   0.002274   0.102413
    18  C    0.353323  -0.077023  -0.265871   0.404415  -0.072075  -0.243618
    19  N    6.737753   0.392555   0.227550  -0.092449   0.012489  -0.026374
    20  H    0.392555   0.563107  -0.065822   0.010405  -0.001466  -0.002519
    21  H    0.227550  -0.065822   0.927278  -0.009372   0.000229   0.093594
    22  N   -0.092449   0.010405  -0.009372   6.697130   0.366590   0.278162
    23  H    0.012489  -0.001466   0.000229   0.366590   0.547178  -0.033170
    24  H   -0.026374  -0.002519   0.093594   0.278162  -0.033170   0.829622
    25  C    0.000000  -0.000000   0.000000  -0.000000   0.000000   0.000000
    26  O   -0.000000  -0.000000   0.000000  -0.000000  -0.000000   0.000000
    27  O    0.000000  -0.000000   0.000000   0.000000   0.000000   0.000000
              25         26         27
     1  N   -0.006162  -0.045386   0.005319
     2  H   -0.000620   0.000868  -0.000022
     3  H    0.000443   0.000307  -0.000214
     4  H   -0.034416   0.288906   0.005001
     5  C    0.233573  -0.123784  -0.131374
     6  H   -0.014136   0.001697   0.002427
     7  C   -0.018215  -0.001464   0.011576
     8  H   -0.002274   0.000947   0.012349
     9  H   -0.002217   0.002267   0.000309
    10  C   -0.004106  -0.000661  -0.001350
    11  H   -0.000425  -0.000010  -0.000079
    12  H    0.000688   0.000012   0.000025
    13  C   -0.000315   0.000004   0.000197
    14  H   -0.000137  -0.000001  -0.000030
    15  H    0.000420  -0.000001  -0.000004
    16  N   -0.000003  -0.000000  -0.000000
    17  H    0.000008  -0.000000   0.000000
    18  C   -0.000004   0.000000   0.000000
    19  N    0.000000  -0.000000   0.000000
    20  H   -0.000000  -0.000000  -0.000000
    21  H    0.000000   0.000000   0.000000
    22  N   -0.000000  -0.000000   0.000000
    23  H    0.000000  -0.000000   0.000000
    24  H    0.000000   0.000000   0.000000
    25  C    4.436007   0.392303   0.700650
    26  O    0.392303   7.953863  -0.085405
    27  O    0.700650  -0.085405   7.840550
 Mulliken charges:
               1
     1  N   -0.595754
     2  H    0.244806
     3  H    0.246432
     4  H    0.340839
     5  C    0.056920
     6  H    0.107073
     7  C   -0.267091
     8  H    0.127100
     9  H    0.095386
    10  C   -0.136534
    11  H    0.045781
    12  H    0.073705
    13  C   -0.069737
    14  H    0.055435
    15  H   -0.007074
    16  N   -0.280964
    17  H   -0.044183
    18  C    0.047035
    19  N   -0.493989
    20  H    0.169365
    21  H    0.004355
    22  N   -0.508995
    23  H    0.166334
    24  H    0.049205
    25  C    0.318937
    26  O   -0.384464
    27  O   -0.359924
 Sum of Mulliken charges =  -1.00000
 Mulliken charges with hydrogens summed into heavy atoms:
               1
     1  N   -0.104516
     5  C    0.163993
     7  C   -0.044605
    10  C   -0.017049
    13  C   -0.021376
    16  N   -0.325147
    18  C    0.047035
    19  N   -0.320269
    22  N   -0.293455
    25  C    0.318937
    26  O   -0.043624
    27  O   -0.359924
 Electronic spatial extent (au):  <R**2>=           4290.6342
 Charge=             -1.0000 electrons
 Dipole moment (field-independent basis, Debye):
    X=            -14.1020    Y=              5.7862    Z=              0.8388  Tot=             15.2660
 Quadrupole moment (field-independent basis, Debye-Ang):
   XX=           -197.7524   YY=            -83.6282   ZZ=            -78.4413
   XY=             -2.9436   XZ=              0.4133   YZ=             -1.4972
 Traceless Quadrupole moment (field-independent basis, Debye-Ang):
   XX=            -77.8117   YY=             36.3125   ZZ=             41.4993
   XY=             -2.9436   XZ=              0.4133   YZ=             -1.4972
 Octapole moment (field-independent basis, Debye-Ang**2):
  XXX=           -355.6749  YYY=             21.3578  ZZZ=             -3.1305  XYY=            -20.3241
  XXY=             93.5878  XXZ=             -9.0387  XZZ=            -33.3323  YZZ=              4.7487
  YYZ=              3.5887  XYZ=              4.6646
 Hexadecapole moment (field-independent basis, Debye-Ang**3):
 XXXX=          -8078.0037 YYYY=           -422.0801 ZZZZ=           -266.6653 XXXY=             50.0083
 XXXZ=            -27.5115 YYYX=            -24.6276 YYYZ=             -9.8840 ZZZX=            -33.9508
 ZZZY=             -0.9906 XXYY=          -1044.6237 XXZZ=           -946.6645 YYZZ=           -114.3584
 XXYZ=            -10.5430 YYXZ=             -7.1846 ZZXY=              2.3909
 N-N= 7.113346851087D+02 E-N=-2.854465015350D+03  KE= 6.044119158101D+02
 Unable to Open any file for archive entry.
 1\1\GINC-WATER\SP\RwB97XD\def2TZVP\C6H15N4O2(1-)\DAYALYZ\10-Jun-2025\0
 \\# wB97xD/Def2TZVP SCF(Tight) Int(Grid=299974)\\Displacement_-0.09\\-
 1,1\N,0,-2.449391,1.662106,0.312579\H,0,-1.892601,1.661727,1.158668\H,
 0,-2.080546,2.396181,-0.273303\H,0,-4.177396,1.141286,0.662011\C,0,-2.
 348291,0.354291,-0.351331\H,0,-2.34121,0.525036,-1.432399\C,0,-1.09445
 4,-0.433998,0.018947\H,0,-1.158799,-1.420651,-0.442292\H,0,-1.094388,-
 0.600813,1.103594\C,0,0.189472,0.269027,-0.401511\H,0,0.226249,1.27477
 5,0.033698\H,0,0.202187,0.403801,-1.488111\C,0,1.454987,-0.475381,0.01
 0983\H,0,1.500154,-1.447764,-0.488222\H,0,1.388251,-0.690528,1.097108\
 N,0,2.637813,0.252447,-0.370362\H,0,2.663477,1.14038,0.183921\C,0,3.91
 2,-0.45352,-0.160139\N,0,4.229764,-0.562612,1.250282\H,0,3.541717,-1.1
 16761,1.747252\H,0,4.110188,0.363081,1.745039\N,0,4.955103,0.393204,-0
 .715469\H,0,4.674341,0.564868,-1.673512\H,0,4.935128,1.291549,-0.18542
 1\C,0,-3.634014,-0.44553,-0.088747\O,0,-4.586522,0.257947,0.524834\O,0
 ,-3.789113,-1.585375,-0.425703\\Version=ES64L-G16RevC.01\State=1-A\HF=
 -607.1315991\RMSD=2.245e-09\Dipole=-5.5477945,2.2763905,0.3366946\Quad
 rupole=-57.8520408,27.0057782,30.8462626,-2.1735811,0.2840839,-1.12653
 17\PG=C01 [X(C6H15N4O2)]\\@
 The archive entry for this job was punched.


 SEE YOU NOW,
 YOUR BAIT OF FALSEHOOD TAKES THIS CARP OF TRUTH.
 AND THUS DO WE OF WISDOM AND OF REACH...
 BY INDIRECTIONS FIND DIRECTIONS OUT.    -- HAMLET, II, 1
 Job cpu time:       0 days  0 hours 47 minutes 34.7 seconds.
 Elapsed time:       0 days  0 hours 47 minutes 40.8 seconds.
 File lengths (MBytes):  RWF=    118 Int=      0 D2E=      0 Chk=     13 Scr=      1
 Normal termination of Gaussian 16 at Tue Jun 10 13:54:35 2025.
