 Entering Gaussian System, Link 0=g16
 Initial command:
 /opt/gaussian/g16/l1.exe "/scratch/Gau-200395.inp" -scrdir="/scratch/"
 Entering Link 1 = /opt/gaussian/g16/l1.exe PID=    200396.
  
 Copyright (c) 1988-2019, Gaussian, Inc.  All Rights Reserved.
  
 This is part of the Gaussian(R) 16 program.  It is based on
 the Gaussian(R) 09 system (copyright 2009, Gaussian, Inc.),
 the Gaussian(R) 03 system (copyright 2003, Gaussian, Inc.),
 the Gaussian(R) 98 system (copyright 1998, Gaussian, Inc.),
 the Gaussian(R) 94 system (copyright 1995, Gaussian, Inc.),
 the Gaussian 92(TM) system (copyright 1992, Gaussian, Inc.),
 the Gaussian 90(TM) system (copyright 1990, Gaussian, Inc.),
 the Gaussian 88(TM) system (copyright 1988, Gaussian, Inc.),
 the Gaussian 86(TM) system (copyright 1986, Carnegie Mellon
 University), and the Gaussian 82(TM) system (copyright 1983,
 Carnegie Mellon University). Gaussian is a federally registered
 trademark of Gaussian, Inc.
  
 This software contains proprietary and confidential information,
 including trade secrets, belonging to Gaussian, Inc.
  
 This software is provided under written license and may be
 used, copied, transmitted, or stored only in accord with that
 written license.
  
 The following legend is applicable only to US Government
 contracts under FAR:
  
                    RESTRICTED RIGHTS LEGEND
  
 Use, reproduction and disclosure by the US Government is
 subject to restrictions as set forth in subparagraphs (a)
 and (c) of the Commercial Computer Software - Restricted
 Rights clause in FAR 52.227-19.
  
 Gaussian, Inc.
 340 Quinnipiac St., Bldg. 40, Wallingford CT 06492
  
  
 ---------------------------------------------------------------
 Warning -- This program may not be used in any manner that
 competes with the business of Gaussian, Inc. or will provide
 assistance to any competitor of Gaussian, Inc.  The licensee
 of this program is prohibited from giving any competitor of
 Gaussian, Inc. access to this program.  By using this program,
 the user acknowledges that Gaussian, Inc. is engaged in the
 business of creating and licensing software in the field of
 computational chemistry and represents and warrants to the
 licensee that it is not a competitor of Gaussian, Inc. and that
 it will not use this program in any manner prohibited above.
 ---------------------------------------------------------------
  

 Cite this work as:
 Gaussian 16, Revision C.01,
 M. J. Frisch, G. W. Trucks, H. B. Schlegel, G. E. Scuseria, 
 M. A. Robb, J. R. Cheeseman, G. Scalmani, V. Barone, 
 G. A. Petersson, H. Nakatsuji, X. Li, M. Caricato, A. V. Marenich, 
 J. Bloino, B. G. Janesko, R. Gomperts, B. Mennucci, H. P. Hratchian, 
 J. V. Ortiz, A. F. Izmaylov, J. L. Sonnenberg, D. Williams-Young, 
 F. Ding, F. Lipparini, F. Egidi, J. Goings, B. Peng, A. Petrone, 
 T. Henderson, D. Ranasinghe, V. G. Zakrzewski, J. Gao, N. Rega, 
 G. Zheng, W. Liang, M. Hada, M. Ehara, K. Toyota, R. Fukuda, 
 J. Hasegawa, M. Ishida, T. Nakajima, Y. Honda, O. Kitao, H. Nakai, 
 T. Vreven, K. Throssell, J. A. Montgomery, Jr., J. E. Peralta, 
 F. Ogliaro, M. J. Bearpark, J. J. Heyd, E. N. Brothers, K. N. Kudin, 
 V. N. Staroverov, T. A. Keith, R. Kobayashi, J. Normand, 
 K. Raghavachari, A. P. Rendell, J. C. Burant, S. S. Iyengar, 
 J. Tomasi, M. Cossi, J. M. Millam, M. Klene, C. Adamo, R. Cammi, 
 J. W. Ochterski, R. L. Martin, K. Morokuma, O. Farkas, 
 J. B. Foresman, and D. J. Fox, Gaussian, Inc., Wallingford CT, 2019.
 
 ******************************************
 Gaussian 16:  ES64L-G16RevC.01  3-Jul-2019
                11-Jun-2025 
 ******************************************
 ---------------------------------------------
 # wB97xD/Def2TZVP SCF(Tight) Int(Grid=299974)
 ---------------------------------------------
 1/38=1,172=1/1;
 2/12=2,17=6,18=5,40=1/2;
 3/5=44,7=101,11=2,25=1,30=1,74=-58,75=299974/1,2,3;
 4//1;
 5/5=2,32=2,38=5/2;
 6/7=2,8=2,9=2,10=2,28=1/1;
 99/5=1,9=1/99;
 -----------------
 Displacement_0.04
 -----------------
 Symbolic Z-matrix:
 Charge = -1 Multiplicity = 1
 N                    -2.44939   1.66211   0.31258 
 H                    -1.8926    1.66173   1.15867 
 H                    -2.08055   2.39618  -0.2733 
 H                    -4.1774    1.14129   0.66201 
 C                    -2.34829   0.35429  -0.35133 
 H                    -2.34121   0.52504  -1.4324 
 C                    -1.09445  -0.434     0.01895 
 H                    -1.1588   -1.42065  -0.44229 
 H                    -1.09439  -0.60081   1.10359 
 C                     0.18947   0.26903  -0.40151 
 H                     0.22625   1.27477   0.0337 
 H                     0.20219   0.4038   -1.48811 
 C                     1.45499  -0.47538   0.01098 
 H                     1.50015  -1.44906  -0.48692 
 H                     1.38695  -0.69183   1.09711 
 N                     2.63781   0.25245  -0.37036 
 H                     2.66348   1.14038   0.18522 
 C                     3.9107   -0.45352  -0.15884 
 N                     4.22846  -0.56131   1.25678 
 H                     3.54692  -1.16356   1.69915 
 H                     4.14269   0.38908   1.68784 
 N                     4.9538    0.388    -0.71287 
 H                     4.68474   0.62337  -1.66181 
 H                     4.93903   1.32405  -0.23742 
 C                    -3.63401  -0.44553  -0.08875 
 O                    -4.58652   0.25795   0.52483 
 O                    -3.78911  -1.58538  -0.4257 
 
                          Input orientation:                          
 ---------------------------------------------------------------------
 Center     Atomic      Atomic             Coordinates (Angstroms)
 Number     Number       Type             X           Y           Z
 ---------------------------------------------------------------------
      1          7           0       -2.449391    1.662106    0.312579
      2          1           0       -1.892601    1.661727    1.158668
      3          1           0       -2.080546    2.396181   -0.273303
      4          1           0       -4.177396    1.141286    0.662011
      5          6           0       -2.348291    0.354291   -0.351331
      6          1           0       -2.341210    0.525036   -1.432399
      7          6           0       -1.094454   -0.433998    0.018947
      8          1           0       -1.158799   -1.420651   -0.442292
      9          1           0       -1.094388   -0.600813    1.103594
     10          6           0        0.189472    0.269027   -0.401511
     11          1           0        0.226249    1.274775    0.033698
     12          1           0        0.202187    0.403801   -1.488111
     13          6           0        1.454987   -0.475381    0.010983
     14          1           0        1.500154   -1.449064   -0.486922
     15          1           0        1.386951   -0.691828    1.097108
     16          7           0        2.637813    0.252447   -0.370362
     17          1           0        2.663477    1.140380    0.185221
     18          6           0        3.910700   -0.453520   -0.158839
     19          7           0        4.228464   -0.561312    1.256782
     20          1           0        3.546917   -1.163561    1.699152
     21          1           0        4.142688    0.389081    1.687839
     22          7           0        4.953803    0.388004   -0.712869
     23          1           0        4.684741    0.623368   -1.661812
     24          1           0        4.939028    1.324049   -0.237421
     25          6           0       -3.634014   -0.445530   -0.088747
     26          8           0       -4.586522    0.257947    0.524834
     27          8           0       -3.789113   -1.585375   -0.425703
 ---------------------------------------------------------------------
                    Distance matrix (angstroms):
                    1          2          3          4          5
     1  N    0.000000
     2  H    1.012858   0.000000
     3  H    1.009044   1.620274   0.000000
     4  H    1.838303   2.395374   2.616554   0.000000
     5  C    1.470162   2.048692   2.060847   2.234244   0.000000
     6  H    2.085565   2.864777   2.216446   2.852700   1.094492
     7  C    2.513111   2.515565   3.011262   3.521304   1.526634
     8  H    3.426200   3.550013   3.930188   4.110345   2.138594
     9  H    2.753641   2.399847   3.442430   3.568591   2.145065
    10  C    3.068255   2.951068   3.113552   4.578368   2.539691
    11  H    2.717876   2.429982   2.583235   4.450246   2.761122
    12  H    3.443353   3.602215   3.264385   4.934334   2.792787
    13  C    4.461387   4.134097   4.563626   5.895862   3.909546
    14  H    5.090922   4.888330   5.258608   6.345434   4.252176
    15  H    4.568808   4.037137   4.841215   5.874655   4.140576
    16  N    5.322893   4.984842   5.183428   6.950029   4.987180
    17  H    5.140996   4.687990   4.928796   6.857468   5.101337
    18  C    6.719291   6.315726   6.635430   8.284594   6.313840
    19  N    7.101328   6.512984   7.133830   8.597155   6.832135
    20  H    6.772200   6.153270   6.944831   8.127299   6.423537
    21  H    6.853279   6.190667   6.826651   8.416765   6.803840
    22  N    7.581699   7.210983   7.328578   9.264800   7.311116
    23  H    7.474827   7.231509   7.130213   9.176375   7.159141
    24  H    7.416570   6.980992   7.101068   9.162509   7.352443
    25  C    2.450821   3.004845   3.243863   1.837631   1.536798
    26  O    2.565939   3.103152   3.389540   0.983102   2.405541
    27  O    3.589714   4.080522   4.335345   2.961176   2.417396
                    6          7          8          9         10
     6  H    0.000000
     7  C    2.140222   0.000000
     8  H    2.482762   1.091039   0.000000
     9  H    3.041934   1.097400   1.751013   0.000000
    10  C    2.744562   1.522989   2.162061   2.161078   0.000000
    11  H    3.050147   2.159717   3.067612   2.531124   1.096489
    12  H    2.546894   2.157408   2.504924   3.067131   1.095000
    13  C    4.182738   2.549789   2.816180   2.776481   1.525065
    14  H    4.421207   2.831652   2.659479   3.159259   2.162642
    15  H    4.666728   2.717771   3.062969   2.483016   2.145474
    16  N    5.098323   3.814785   4.149541   4.102429   2.448595
    17  H    5.295492   4.077788   4.643538   4.242253   2.687789
    18  C    6.454913   5.008349   5.168705   5.163946   3.798487
    19  N    7.181397   5.466434   5.713836   5.325202   4.444418
    20  H    6.879536   4.989757   5.176451   4.713076   4.211595
    21  H    7.196895   5.557906   5.993192   5.361735   4.472998
    22  N    7.331693   6.147573   6.380309   6.392019   4.775976
    23  H    7.030383   6.110816   6.309691   6.522608   4.682025
    24  H    7.420799   6.289623   6.690205   6.473448   4.868088
    25  C    2.102080   2.541869   2.683756   2.809891   3.902238
    26  O    2.990572   3.595726   3.937297   3.642449   4.865014
    27  O    2.750217   2.963877   2.635519   3.251101   4.389593
                   11         12         13         14         15
    11  H    0.000000
    12  H    1.753590   0.000000
    13  C    2.138541   2.142371   0.000000
    14  H    3.051750   2.473905   1.094536   0.000000
    15  H    2.519047   3.047528   1.109570   1.759367   0.000000
    16  N    2.650294   2.684128   1.440220   2.050120   2.147040
    17  H    2.445629   3.066030   2.025214   2.917245   2.412062
    18  C    4.074218   4.031753   2.461675   2.628589   2.829046
    19  N    4.569997   4.967574   3.041640   3.357422   2.848987
    20  H    4.443653   4.878779   2.774829   3.008267   2.291384
    21  H    4.342710   5.061069   3.283729   3.884758   3.018512
    22  N    4.867596   4.814468   3.675746   3.918362   4.143005
    23  H    4.814274   4.491288   3.799579   3.977051   4.496309
    24  H    4.720828   4.984852   3.929147   4.424733   4.296740
    25  C    4.228010   4.170854   5.090066   5.246456   5.164979
    26  O    4.943472   5.196629   6.107507   6.401965   6.075521
    27  O    4.951226   4.584322   5.378045   5.291377   5.468914
                   16         17         18         19         20
    16  N    0.000000
    17  H    1.047739   0.000000
    18  C    1.470841   2.052915   0.000000
    19  N    2.416603   2.548172   1.454846   0.000000
    20  H    2.667290   2.894926   2.022035   1.011386   0.000000
    21  H    2.553333   2.238387   2.043041   1.047098   1.663060
    22  N    2.345101   2.572592   1.450233   2.303659   3.194453
    23  H    2.448538   2.786457   2.004434   3.182742   3.972888
    24  H    2.541967   2.321744   2.055088   2.508412   3.446229
    25  C    6.316826   6.499889   7.545044   7.977620   7.434912
    26  O    7.279589   7.311396   8.554319   8.883181   8.339816
    27  O    6.684761   7.031279   7.787132   8.255968   7.649201
                   21         22         23         24         25
    21  H    0.000000
    22  N    2.534030   0.000000
    23  H    3.401305   1.014043   0.000000
    24  H    2.283626   1.049976   1.607640   0.000000
    25  C    8.020594   8.650717   8.533391   8.755031   0.000000
    26  O    8.807320   9.621155   9.532642   9.615285   1.333654
    27  O    8.442689   8.967456   8.843795   9.202209   1.198683
                   26         27
    26  O    0.000000
    27  O    2.221985   0.000000
 Stoichiometry    C6H15N4O2(1-)
 Framework group  C1[X(C6H15N4O2)]
 Deg. of freedom    75
 Full point group                 C1      NOp   1
 Largest Abelian subgroup         C1      NOp   1
 Largest concise Abelian subgroup C1      NOp   1
                         Standard orientation:                         
 ---------------------------------------------------------------------
 Center     Atomic      Atomic             Coordinates (Angstroms)
 Number     Number       Type             X           Y           Z
 ---------------------------------------------------------------------
      1          7           0       -2.449358    1.661716    0.315068
      2          1           0       -1.892634    1.660043    1.161199
      3          1           0       -2.080406    2.396623   -0.269702
      4          1           0       -4.177433    1.140525    0.663596
      5          6           0       -2.348314    0.354873   -0.350762
      6          1           0       -2.341134    0.527211   -1.431576
      7          6           0       -1.094571   -0.434065    0.018452
      8          1           0       -1.158962   -1.420032   -0.444246
      9          1           0       -1.094605   -0.602479    1.102852
     10          6           0        0.189446    0.269472   -0.400868
     11          1           0        0.226272    1.274574    0.035827
     12          1           0        0.202258    0.405847   -1.487267
     13          6           0        1.454867   -0.475648    0.010628
     14          1           0        1.499992   -1.448600   -0.488708
     15          1           0        1.386727   -0.693691    1.096427
     16          7           0        2.637783    0.252643   -0.369550
     17          1           0        2.663477    1.139754    0.187343
     18          6           0        3.910595   -0.453741   -0.158968
     19          7           0        4.228238   -0.563646    1.256517
     20          1           0        3.546607   -1.166490    1.697945
     21          1           0        4.142507    0.386117    1.688968
     22          7           0        4.953811    0.388512   -0.711675
     23          1           0        4.684844    0.625297   -1.660291
     24          1           0        4.939077    1.323857   -0.234849
     25          6           0       -3.634124   -0.445228   -0.089458
     26          8           0       -4.586622    0.257423    0.525084
     27          8           0       -3.789291   -1.584562   -0.428107
 ---------------------------------------------------------------------
 Rotational constants (GHZ):           2.7669203           0.2562245           0.2486494
 Standard basis: def2TZVP (5D, 7F)
 There are   522 symmetry adapted cartesian basis functions of A   symmetry.
 There are   462 symmetry adapted basis functions of A   symmetry.
   462 basis functions,   732 primitive gaussians,   522 cartesian basis functions
    48 alpha electrons       48 beta electrons
       nuclear repulsion energy       711.3541069237 Hartrees.
 NAtoms=   27 NActive=   27 NUniq=   27 SFac= 1.00D+00 NAtFMM=   60 NAOKFM=F Big=F
 Integral buffers will be    131072 words long.
 Raffenetti 2 integral format.
 Two-electron integral symmetry is turned on.
 Nuclear repulsion after empirical dispersion term =      711.3366000034 Hartrees.
 One-electron integrals computed using PRISM.
   1 Symmetry operations used in ECPInt.
 ECPInt:  NShTT=   18528 NPrTT=   54924 LenC2=   16268 LenP2D=   36013.
 LDataN:  DoStor=T MaxTD1= 6 Len=  172
 NBasis=   462 RedAO= T EigKep=  7.71D-05  NBF=   462
 NBsUse=   462 1.00D-06 EigRej= -1.00D+00 NBFU=   462
 ExpMin= 9.52D-02 ExpMax= 2.70D+04 ExpMxC= 9.22D+02 IAcc=4 IRadAn=    299974 AccDes= 0.00D+00
 Harris functional with IExCor= 4639 and IRadAn=  299974 diagonalized for initial guess.
 HarFok:  IExCor= 4639 AccDes= 0.00D+00 IRadAn=    299974 IDoV= 1 UseB2=F ITyADJ=14
 ICtDFT=  3500011 ScaDFX=  1.000000  1.000000  1.000000  1.000000
 FoFCou: FMM=F IPFlag=           0 FMFlag=      100000 FMFlg1=           0
         NFxFlg=           0 DoJE=T BraDBF=F KetDBF=T FulRan=T
         wScrn=  0.000000 ICntrl=       500 IOpCl=  0 I1Cent=   200000004 NGrid=           0
         NMat0=    1 NMatS0=      1 NMatT0=    0 NMatD0=    1 NMtDS0=    0 NMtDT0=    0
 Petite list used in FoFCou.
 Requested convergence on RMS density matrix=1.00D-08 within 128 cycles.
 Requested convergence on MAX density matrix=1.00D-06.
 Requested convergence on             energy=1.00D-06.
 No special actions if energy rises.
 Integral accuracy reduced to 1.0D-05 until final iterations.
 Initial convergence to 1.0D-05 achieved.  Increase integral accuracy.
 SCF Done:  E(RwB97XD) =  -607.132800661     A.U. after   17 cycles
            NFock= 17  Conv=0.23D-08     -V/T= 2.0045

 **********************************************************************

            Population analysis using the SCF Density.

 **********************************************************************

 Orbital symmetries:
       Occupied  (A) (A) (A) (A) (A) (A) (A) (A) (A) (A) (A) (A)
                 (A) (A) (A) (A) (A) (A) (A) (A) (A) (A) (A) (A)
                 (A) (A) (A) (A) (A) (A) (A) (A) (A) (A) (A) (A)
                 (A) (A) (A) (A) (A) (A) (A) (A) (A) (A) (A) (A)
       Virtual   (A) (A) (A) (A) (A) (A) (A) (A) (A) (A) (A) (A)
                 (A) (A) (A) (A) (A) (A) (A) (A) (A) (A) (A) (A)
                 (A) (A) (A) (A) (A) (A) (A) (A) (A) (A) (A) (A)
                 (A) (A) (A) (A) (A) (A) (A) (A) (A) (A) (A) (A)
                 (A) (A) (A) (A) (A) (A) (A) (A) (A) (A) (A) (A)
                 (A) (A) (A) (A) (A) (A) (A) (A) (A) (A) (A) (A)
                 (A) (A) (A) (A) (A) (A) (A) (A) (A) (A) (A) (A)
                 (A) (A) (A) (A) (A) (A) (A) (A) (A) (A) (A) (A)
                 (A) (A) (A) (A) (A) (A) (A) (A) (A) (A) (A) (A)
                 (A) (A) (A) (A) (A) (A) (A) (A) (A) (A) (A) (A)
                 (A) (A) (A) (A) (A) (A) (A) (A) (A) (A) (A) (A)
                 (A) (A) (A) (A) (A) (A) (A) (A) (A) (A) (A) (A)
                 (A) (A) (A) (A) (A) (A) (A) (A) (A) (A) (A) (A)
                 (A) (A) (A) (A) (A) (A) (A) (A) (A) (A) (A) (A)
                 (A) (A) (A) (A) (A) (A) (A) (A) (A) (A) (A) (A)
                 (A) (A) (A) (A) (A) (A) (A) (A) (A) (A) (A) (A)
                 (A) (A) (A) (A) (A) (A) (A) (A) (A) (A) (A) (A)
                 (A) (A) (A) (A) (A) (A) (A) (A) (A) (A) (A) (A)
                 (A) (A) (A) (A) (A) (A) (A) (A) (A) (A) (A) (A)
                 (A) (A) (A) (A) (A) (A) (A) (A) (A) (A) (A) (A)
                 (A) (A) (A) (A) (A) (A) (A) (A) (A) (A) (A) (A)
                 (A) (A) (A) (A) (A) (A) (A) (A) (A) (A) (A) (A)
                 (A) (A) (A) (A) (A) (A) (A) (A) (A) (A) (A) (A)
                 (A) (A) (A) (A) (A) (A) (A) (A) (A) (A) (A) (A)
                 (A) (A) (A) (A) (A) (A) (A) (A) (A) (A) (A) (A)
                 (A) (A) (A) (A) (A) (A) (A) (A) (A) (A) (A) (A)
                 (A) (A) (A) (A) (A) (A) (A) (A) (A) (A) (A) (A)
                 (A) (A) (A) (A) (A) (A) (A) (A) (A) (A) (A) (A)
                 (A) (A) (A) (A) (A) (A) (A) (A) (A) (A) (A) (A)
                 (A) (A) (A) (A) (A) (A) (A) (A) (A) (A) (A) (A)
                 (A) (A) (A) (A) (A) (A) (A) (A) (A) (A) (A) (A)
                 (A) (A) (A) (A) (A) (A) (A) (A) (A) (A) (A) (A)
                 (A) (A) (A) (A) (A) (A) (A) (A) (A) (A) (A) (A)
                 (A) (A) (A) (A) (A) (A) (A) (A) (A) (A) (A) (A)
                 (A) (A) (A) (A) (A) (A)
 The electronic state is 1-A.
 Alpha  occ. eigenvalues --  -19.20421 -19.14475 -14.37147 -14.23900 -14.22538
 Alpha  occ. eigenvalues --  -14.22185 -10.32613 -10.25467 -10.19391 -10.16789
 Alpha  occ. eigenvalues --  -10.15863 -10.09998  -1.12371  -1.03768  -0.94110
 Alpha  occ. eigenvalues --   -0.85530  -0.80062  -0.77098  -0.73943  -0.71247
 Alpha  occ. eigenvalues --   -0.62977  -0.60594  -0.56968  -0.54595  -0.51431
 Alpha  occ. eigenvalues --   -0.48813  -0.47889  -0.45818  -0.45276  -0.43372
 Alpha  occ. eigenvalues --   -0.41541  -0.40408  -0.39045  -0.37196  -0.36333
 Alpha  occ. eigenvalues --   -0.34983  -0.33876  -0.32682  -0.31886  -0.31183
 Alpha  occ. eigenvalues --   -0.30478  -0.28787  -0.28129  -0.26196  -0.18607
 Alpha  occ. eigenvalues --   -0.15547  -0.11876  -0.03610
 Alpha virt. eigenvalues --    0.15791   0.18121   0.20613   0.22636   0.23407
 Alpha virt. eigenvalues --    0.25102   0.25769   0.26600   0.27634   0.28119
 Alpha virt. eigenvalues --    0.29994   0.30985   0.32235   0.32764   0.33079
 Alpha virt. eigenvalues --    0.35033   0.35169   0.35377   0.36260   0.37532
 Alpha virt. eigenvalues --    0.37813   0.39303   0.40670   0.42136   0.43962
 Alpha virt. eigenvalues --    0.43985   0.44781   0.45623   0.46297   0.47426
 Alpha virt. eigenvalues --    0.47699   0.48631   0.49471   0.50857   0.51382
 Alpha virt. eigenvalues --    0.52551   0.53481   0.53984   0.54840   0.55457
 Alpha virt. eigenvalues --    0.56133   0.56396   0.57375   0.57778   0.59361
 Alpha virt. eigenvalues --    0.59581   0.60760   0.61434   0.61838   0.62393
 Alpha virt. eigenvalues --    0.62772   0.63795   0.63992   0.64797   0.65272
 Alpha virt. eigenvalues --    0.65707   0.66189   0.66894   0.67766   0.69125
 Alpha virt. eigenvalues --    0.69577   0.70093   0.70905   0.71886   0.72035
 Alpha virt. eigenvalues --    0.72132   0.73350   0.73825   0.74446   0.75426
 Alpha virt. eigenvalues --    0.77296   0.78266   0.78678   0.79350   0.80685
 Alpha virt. eigenvalues --    0.82277   0.82394   0.83633   0.84484   0.86002
 Alpha virt. eigenvalues --    0.86214   0.88817   0.90518   0.91042   0.92837
 Alpha virt. eigenvalues --    0.94831   0.96358   0.97952   0.99681   1.00793
 Alpha virt. eigenvalues --    1.02548   1.03849   1.06097   1.06373   1.08033
 Alpha virt. eigenvalues --    1.09072   1.09856   1.10160   1.13122   1.15391
 Alpha virt. eigenvalues --    1.17004   1.17482   1.18753   1.21144   1.22760
 Alpha virt. eigenvalues --    1.23808   1.26258   1.28247   1.29914   1.30564
 Alpha virt. eigenvalues --    1.33313   1.33960   1.36428   1.38053   1.40424
 Alpha virt. eigenvalues --    1.41091   1.43147   1.46337   1.47445   1.48692
 Alpha virt. eigenvalues --    1.49438   1.50802   1.52392   1.52766   1.53983
 Alpha virt. eigenvalues --    1.54987   1.55897   1.57205   1.58184   1.60385
 Alpha virt. eigenvalues --    1.61384   1.63469   1.64815   1.65511   1.66828
 Alpha virt. eigenvalues --    1.67466   1.70168   1.70854   1.72466   1.73588
 Alpha virt. eigenvalues --    1.73842   1.75755   1.77751   1.78328   1.80079
 Alpha virt. eigenvalues --    1.80332   1.81920   1.82897   1.85196   1.86727
 Alpha virt. eigenvalues --    1.88762   1.89484   1.92984   1.93933   1.95365
 Alpha virt. eigenvalues --    1.95403   1.96991   1.98683   1.99170   2.00953
 Alpha virt. eigenvalues --    2.02181   2.04118   2.05272   2.06088   2.08024
 Alpha virt. eigenvalues --    2.09363   2.09953   2.10743   2.11471   2.13456
 Alpha virt. eigenvalues --    2.15673   2.15997   2.16608   2.18370   2.20561
 Alpha virt. eigenvalues --    2.21358   2.22165   2.22563   2.23583   2.24999
 Alpha virt. eigenvalues --    2.25773   2.26522   2.27097   2.28703   2.29295
 Alpha virt. eigenvalues --    2.31674   2.32871   2.33518   2.36869   2.37497
 Alpha virt. eigenvalues --    2.40141   2.40487   2.43589   2.44420   2.45360
 Alpha virt. eigenvalues --    2.46070   2.48376   2.48991   2.51551   2.52071
 Alpha virt. eigenvalues --    2.54711   2.56331   2.58070   2.58599   2.60061
 Alpha virt. eigenvalues --    2.60912   2.62293   2.64925   2.65630   2.68080
 Alpha virt. eigenvalues --    2.68897   2.69015   2.70997   2.71912   2.73322
 Alpha virt. eigenvalues --    2.75142   2.76286   2.77508   2.79187   2.80272
 Alpha virt. eigenvalues --    2.81910   2.83046   2.83721   2.84208   2.86314
 Alpha virt. eigenvalues --    2.88665   2.89473   2.90249   2.90722   2.91102
 Alpha virt. eigenvalues --    2.94461   2.94857   2.95682   2.96431   2.97294
 Alpha virt. eigenvalues --    2.99717   3.03950   3.05099   3.06540   3.08045
 Alpha virt. eigenvalues --    3.09158   3.10335   3.12221   3.13480   3.14619
 Alpha virt. eigenvalues --    3.17014   3.18843   3.21663   3.22260   3.25168
 Alpha virt. eigenvalues --    3.25932   3.26118   3.28646   3.29353   3.30206
 Alpha virt. eigenvalues --    3.31922   3.32420   3.38187   3.38970   3.41192
 Alpha virt. eigenvalues --    3.41969   3.42874   3.44701   3.45181   3.46302
 Alpha virt. eigenvalues --    3.46557   3.48787   3.49870   3.51233   3.51860
 Alpha virt. eigenvalues --    3.52559   3.53630   3.54284   3.56658   3.58941
 Alpha virt. eigenvalues --    3.60568   3.62361   3.63982   3.64837   3.65989
 Alpha virt. eigenvalues --    3.68106   3.68976   3.69594   3.70844   3.74074
 Alpha virt. eigenvalues --    3.75427   3.76547   3.77754   3.81432   3.82022
 Alpha virt. eigenvalues --    3.83486   3.85673   3.86147   3.88380   3.92129
 Alpha virt. eigenvalues --    3.93963   3.95054   3.99582   4.04146   4.04804
 Alpha virt. eigenvalues --    4.06079   4.08016   4.11266   4.12495   4.13811
 Alpha virt. eigenvalues --    4.14093   4.18037   4.20539   4.21132   4.21893
 Alpha virt. eigenvalues --    4.26381   4.31488   4.32785   4.36570   4.37762
 Alpha virt. eigenvalues --    4.40523   4.43725   4.48607   4.51129   4.53631
 Alpha virt. eigenvalues --    4.54044   4.57436   4.58731   4.59909   4.60666
 Alpha virt. eigenvalues --    4.64105   4.66278   4.70281   4.74350   4.74742
 Alpha virt. eigenvalues --    4.77519   4.81543   4.84597   4.88349   4.89543
 Alpha virt. eigenvalues --    4.91617   4.93519   4.97712   4.98836   4.99469
 Alpha virt. eigenvalues --    5.00924   5.01988   5.07449   5.09571   5.10310
 Alpha virt. eigenvalues --    5.11871   5.12910   5.16911   5.18867   5.20665
 Alpha virt. eigenvalues --    5.24493   5.26055   5.27967   5.30172   5.30591
 Alpha virt. eigenvalues --    5.34052   5.35083   5.35262   5.38134   5.38591
 Alpha virt. eigenvalues --    5.41223   5.42214   5.45406   5.46691   5.48782
 Alpha virt. eigenvalues --    5.49605   5.52972   5.56766   5.59608   5.61363
 Alpha virt. eigenvalues --    5.63844   5.68274   5.70501   5.72311   5.72755
 Alpha virt. eigenvalues --    5.74162   5.76281   5.80431   5.86764   5.87751
 Alpha virt. eigenvalues --    5.93335   5.94123   5.96445   6.01194   6.10709
 Alpha virt. eigenvalues --    6.16552   6.20224   6.25858   6.35951   6.36441
 Alpha virt. eigenvalues --    6.53631   6.58950   6.63520   6.67847   6.89956
 Alpha virt. eigenvalues --    6.90133   6.97029   7.00755   7.19116   7.30569
 Alpha virt. eigenvalues --    7.34111   7.46542  22.62024  22.71252  22.73366
 Alpha virt. eigenvalues --   22.76947  22.79981  23.51682  32.20083  32.22197
 Alpha virt. eigenvalues --   32.30705  32.74912  44.02111  44.08742
          Condensed to atoms (all electrons):
               1          2          3          4          5          6
     1  N    6.771193   0.368697   0.372492   0.056218   0.142709  -0.044803
     2  H    0.368697   0.441780  -0.028763  -0.001653  -0.033594   0.005967
     3  H    0.372492  -0.028763   0.442052  -0.000773  -0.019364  -0.010993
     4  H    0.056218  -0.001653  -0.000773   0.358829  -0.017514   0.001364
     5  C    0.142709  -0.033594  -0.019364  -0.017514   5.404195   0.404328
     6  H   -0.044803   0.005967  -0.010993   0.001364   0.404328   0.578478
     7  C   -0.050468  -0.005905  -0.002919   0.003811   0.223415  -0.035766
     8  H    0.008512   0.000338  -0.000453  -0.000234  -0.044727  -0.003125
     9  H   -0.010422   0.004963  -0.000161  -0.000098  -0.024952   0.008545
    10  C    0.010075  -0.000147   0.001701  -0.000244  -0.041100  -0.003579
    11  H    0.017702   0.003240  -0.000420   0.000006  -0.024021  -0.000812
    12  H   -0.001738   0.000349   0.000414  -0.000046   0.005977   0.003027
    13  C    0.001909  -0.000498   0.000177   0.000005  -0.014479   0.000724
    14  H   -0.000105   0.000051  -0.000006   0.000000   0.001673  -0.000011
    15  H    0.000065  -0.000007   0.000047  -0.000002   0.002205  -0.000246
    16  N    0.000117   0.000005   0.000008  -0.000000  -0.000983  -0.000071
    17  H   -0.000183   0.000109   0.000004  -0.000001   0.001143  -0.000056
    18  C    0.000017  -0.000009   0.000000  -0.000000  -0.000153   0.000004
    19  N   -0.000000   0.000002   0.000000   0.000000   0.000025  -0.000001
    20  H   -0.000000   0.000000  -0.000000   0.000000   0.000006   0.000000
    21  H   -0.000001   0.000005   0.000000  -0.000000   0.000027  -0.000001
    22  N   -0.000000   0.000000   0.000000  -0.000000  -0.000002  -0.000000
    23  H   -0.000000  -0.000000   0.000000   0.000000   0.000000  -0.000000
    24  H   -0.000000   0.000000   0.000000  -0.000000   0.000007  -0.000000
    25  C   -0.006129  -0.000626   0.000448  -0.034423   0.233415  -0.014180
    26  O   -0.045384   0.000868   0.000307   0.288909  -0.123787   0.001699
    27  O    0.005318  -0.000022  -0.000214   0.005001  -0.131374   0.002425
               7          8          9         10         11         12
     1  N   -0.050468   0.008512  -0.010422   0.010075   0.017702  -0.001738
     2  H   -0.005905   0.000338   0.004963  -0.000147   0.003240   0.000349
     3  H   -0.002919  -0.000453  -0.000161   0.001701  -0.000420   0.000414
     4  H    0.003811  -0.000234  -0.000098  -0.000244   0.000006  -0.000046
     5  C    0.223415  -0.044727  -0.024952  -0.041100  -0.024021   0.005977
     6  H   -0.035766  -0.003125   0.008545  -0.003579  -0.000812   0.003027
     7  C    5.318568   0.396221   0.389801   0.143748  -0.057128  -0.019885
     8  H    0.396221   0.532418  -0.016387  -0.017559   0.007856  -0.006886
     9  H    0.389801  -0.016387   0.599545  -0.058458  -0.006002   0.008374
    10  C    0.143748  -0.017559  -0.058458   5.298679   0.411712   0.355435
    11  H   -0.057128   0.007856  -0.006002   0.411712   0.667200  -0.042609
    12  H   -0.019885  -0.006886   0.008374   0.355435  -0.042609   0.625077
    13  C   -0.056978   0.005377   0.006252   0.143025  -0.032344  -0.025266
    14  H   -0.027791   0.003421  -0.001404   0.045807   0.012296  -0.014191
    15  H    0.048770  -0.002743   0.004939  -0.094187  -0.014909   0.018641
    16  N    0.011405   0.000136   0.000220  -0.100022  -0.005322   0.018841
    17  H   -0.002443  -0.000159  -0.000381   0.039736   0.018955  -0.000493
    18  C   -0.002868  -0.000090   0.000159  -0.006114  -0.001805  -0.000123
    19  N    0.001515  -0.000005  -0.000138   0.006833  -0.000285   0.000202
    20  H   -0.000155   0.000012  -0.000042   0.001551   0.000067  -0.000126
    21  H    0.000041  -0.000014  -0.000053   0.005663   0.000962   0.000079
    22  N   -0.000110  -0.000000  -0.000001  -0.001156  -0.000052  -0.000136
    23  H    0.000074  -0.000002   0.000001  -0.000386  -0.000082   0.000360
    24  H    0.000002  -0.000003  -0.000001   0.002461   0.000306   0.000226
    25  C   -0.018195  -0.002253  -0.002190  -0.004065  -0.000423   0.000697
    26  O   -0.001460   0.000947   0.002265  -0.000663  -0.000009   0.000012
    27  O    0.011583   0.012345   0.000308  -0.001352  -0.000079   0.000025
              13         14         15         16         17         18
     1  N    0.001909  -0.000105   0.000065   0.000117  -0.000183   0.000017
     2  H   -0.000498   0.000051  -0.000007   0.000005   0.000109  -0.000009
     3  H    0.000177  -0.000006   0.000047   0.000008   0.000004   0.000000
     4  H    0.000005   0.000000  -0.000002  -0.000000  -0.000001  -0.000000
     5  C   -0.014479   0.001673   0.002205  -0.000983   0.001143  -0.000153
     6  H    0.000724  -0.000011  -0.000246  -0.000071  -0.000056   0.000004
     7  C   -0.056978  -0.027791   0.048770   0.011405  -0.002443  -0.002868
     8  H    0.005377   0.003421  -0.002743   0.000136  -0.000159  -0.000090
     9  H    0.006252  -0.001404   0.004939   0.000220  -0.000381   0.000159
    10  C    0.143025   0.045807  -0.094187  -0.100022   0.039736  -0.006114
    11  H   -0.032344   0.012296  -0.014909  -0.005322   0.018955  -0.001805
    12  H   -0.025266  -0.014191   0.018641   0.018841  -0.000493  -0.000123
    13  C    5.209185   0.281894   0.344401   0.436713  -0.165898  -0.067344
    14  H    0.281894   0.678132  -0.070750  -0.055487   0.043817   0.035190
    15  H    0.344401  -0.070750   0.864161  -0.103590  -0.005685  -0.032698
    16  N    0.436713  -0.055487  -0.103590   6.814121   0.147773   0.524266
    17  H   -0.165898   0.043817  -0.005685   0.147773   1.010292  -0.283530
    18  C   -0.067344   0.035190  -0.032698   0.524266  -0.283530   5.699236
    19  N    0.014537  -0.002999   0.040501  -0.162025  -0.015992   0.350273
    20  H    0.004774   0.001144  -0.002258   0.005744  -0.000198  -0.073894
    21  H   -0.015912   0.008294   0.006496  -0.044010   0.128185  -0.276934
    22  N    0.007183   0.003304  -0.000257  -0.174760   0.026035   0.414872
    23  H    0.001188  -0.000575   0.000511   0.014132   0.001245  -0.077356
    24  H   -0.007764   0.002677   0.001201  -0.044359   0.103716  -0.250849
    25  C   -0.000300  -0.000138   0.000415  -0.000002   0.000008  -0.000003
    26  O    0.000004  -0.000001  -0.000001  -0.000000  -0.000000   0.000000
    27  O    0.000197  -0.000029  -0.000004  -0.000000   0.000000   0.000000
              19         20         21         22         23         24
     1  N   -0.000000  -0.000000  -0.000001  -0.000000  -0.000000  -0.000000
     2  H    0.000002   0.000000   0.000005   0.000000  -0.000000   0.000000
     3  H    0.000000  -0.000000   0.000000   0.000000   0.000000   0.000000
     4  H    0.000000   0.000000  -0.000000  -0.000000   0.000000  -0.000000
     5  C    0.000025   0.000006   0.000027  -0.000002   0.000000   0.000007
     6  H   -0.000001   0.000000  -0.000001  -0.000000  -0.000000  -0.000000
     7  C    0.001515  -0.000155   0.000041  -0.000110   0.000074   0.000002
     8  H   -0.000005   0.000012  -0.000014  -0.000000  -0.000002  -0.000003
     9  H   -0.000138  -0.000042  -0.000053  -0.000001   0.000001  -0.000001
    10  C    0.006833   0.001551   0.005663  -0.001156  -0.000386   0.002461
    11  H   -0.000285   0.000067   0.000962  -0.000052  -0.000082   0.000306
    12  H    0.000202  -0.000126   0.000079  -0.000136   0.000360   0.000226
    13  C    0.014537   0.004774  -0.015912   0.007183   0.001188  -0.007764
    14  H   -0.002999   0.001144   0.008294   0.003304  -0.000575   0.002677
    15  H    0.040501  -0.002258   0.006496  -0.000257   0.000511   0.001201
    16  N   -0.162025   0.005744  -0.044010  -0.174760   0.014132  -0.044359
    17  H   -0.015992  -0.000198   0.128185   0.026035   0.001245   0.103716
    18  C    0.350273  -0.073894  -0.276934   0.414872  -0.077356  -0.250849
    19  N    6.737731   0.389881   0.241952  -0.093637   0.013381  -0.025718
    20  H    0.389881   0.545212  -0.051903   0.009657  -0.001460  -0.001384
    21  H    0.241952  -0.051903   0.895677  -0.007762  -0.000543   0.094899
    22  N   -0.093637   0.009657  -0.007762   6.685832   0.367203   0.268712
    23  H    0.013381  -0.001460  -0.000543   0.367203   0.562844  -0.041814
    24  H   -0.025718  -0.001384   0.094899   0.268712  -0.041814   0.859908
    25  C    0.000000  -0.000000   0.000000  -0.000000   0.000000   0.000000
    26  O   -0.000000  -0.000000   0.000000  -0.000000  -0.000000   0.000000
    27  O    0.000000  -0.000000   0.000000   0.000000   0.000000   0.000000
              25         26         27
     1  N   -0.006129  -0.045384   0.005318
     2  H   -0.000626   0.000868  -0.000022
     3  H    0.000448   0.000307  -0.000214
     4  H   -0.034423   0.288909   0.005001
     5  C    0.233415  -0.123787  -0.131374
     6  H   -0.014180   0.001699   0.002425
     7  C   -0.018195  -0.001460   0.011583
     8  H   -0.002253   0.000947   0.012345
     9  H   -0.002190   0.002265   0.000308
    10  C   -0.004065  -0.000663  -0.001352
    11  H   -0.000423  -0.000009  -0.000079
    12  H    0.000697   0.000012   0.000025
    13  C   -0.000300   0.000004   0.000197
    14  H   -0.000138  -0.000001  -0.000029
    15  H    0.000415  -0.000001  -0.000004
    16  N   -0.000002  -0.000000  -0.000000
    17  H    0.000008  -0.000000   0.000000
    18  C   -0.000003   0.000000   0.000000
    19  N    0.000000  -0.000000   0.000000
    20  H   -0.000000  -0.000000  -0.000000
    21  H    0.000000   0.000000   0.000000
    22  N   -0.000000  -0.000000   0.000000
    23  H    0.000000  -0.000000   0.000000
    24  H    0.000000   0.000000   0.000000
    25  C    4.436038   0.392312   0.700650
    26  O    0.392312   7.953842  -0.085404
    27  O    0.700650  -0.085404   7.840559
 Mulliken charges:
               1
     1  N   -0.595791
     2  H    0.244850
     3  H    0.246416
     4  H    0.340844
     5  C    0.056926
     6  H    0.107083
     7  C   -0.266884
     8  H    0.127060
     9  H    0.095322
    10  C   -0.137395
    11  H    0.046002
    12  H    0.073765
    13  C   -0.070762
    14  H    0.055787
    15  H   -0.005017
    16  N   -0.282848
    17  H   -0.045999
    18  C    0.049756
    19  N   -0.496031
    20  H    0.173375
    21  H    0.014854
    22  N   -0.504924
    23  H    0.161278
    24  H    0.037778
    25  C    0.318943
    26  O   -0.384456
    27  O   -0.359932
 Sum of Mulliken charges =  -1.00000
 Mulliken charges with hydrogens summed into heavy atoms:
               1
     1  N   -0.104525
     5  C    0.164009
     7  C   -0.044502
    10  C   -0.017628
    13  C   -0.019992
    16  N   -0.328847
    18  C    0.049756
    19  N   -0.307802
    22  N   -0.305867
    25  C    0.318943
    26  O   -0.043611
    27  O   -0.359932
 Electronic spatial extent (au):  <R**2>=           4291.2088
 Charge=             -1.0000 electrons
 Dipole moment (field-independent basis, Debye):
    X=            -14.1005    Y=              5.7918    Z=              0.8619  Tot=             15.2680
 Quadrupole moment (field-independent basis, Debye-Ang):
   XX=           -197.7596   YY=            -83.3469   ZZ=            -78.7077
   XY=             -2.8331   XZ=              0.4149   YZ=             -1.7015
 Traceless Quadrupole moment (field-independent basis, Debye-Ang):
   XX=            -77.8216   YY=             36.5912   ZZ=             41.2304
   XY=             -2.8331   XZ=              0.4149   YZ=             -1.7015
 Octapole moment (field-independent basis, Debye-Ang**2):
  XXX=           -355.7703  YYY=             20.8872  ZZZ=             -3.2362  XYY=            -19.3744
  XXY=             94.3134  XXZ=             -8.3003  XZZ=            -34.1586  YZZ=              5.1857
  YYZ=              3.7941  XYZ=              3.9046
 Hexadecapole moment (field-independent basis, Debye-Ang**3):
 XXXX=          -8081.5004 YYYY=           -422.8363 ZZZZ=           -267.2694 XXXY=             53.8387
 XXXZ=            -25.6894 YYYX=            -26.0542 YYYZ=            -10.7417 ZZZX=            -33.9624
 ZZZY=             -0.7080 XXYY=          -1041.0671 XXZZ=           -949.4633 YYZZ=           -113.4858
 XXYZ=            -14.7960 YYXZ=             -7.1094 ZZXY=              4.2225
 N-N= 7.113366000034D+02 E-N=-2.854472582174D+03  KE= 6.044148261041D+02
 Unable to Open any file for archive entry.
 1\1\GINC-WATER\SP\RwB97XD\def2TZVP\C6H15N4O2(1-)\DAYALYZ\11-Jun-2025\0
 \\# wB97xD/Def2TZVP SCF(Tight) Int(Grid=299974)\\Displacement_0.04\\-1
 ,1\N,0,-2.449391,1.662106,0.312579\H,0,-1.892601,1.661727,1.158668\H,0
 ,-2.080546,2.396181,-0.273303\H,0,-4.177396,1.141286,0.662011\C,0,-2.3
 48291,0.354291,-0.351331\H,0,-2.34121,0.525036,-1.432399\C,0,-1.094454
 ,-0.433998,0.018947\H,0,-1.158799,-1.420651,-0.442292\H,0,-1.094388,-0
 .600813,1.103594\C,0,0.189472,0.269027,-0.401511\H,0,0.226249,1.274775
 ,0.033698\H,0,0.202187,0.403801,-1.488111\C,0,1.454987,-0.475381,0.010
 983\H,0,1.500154,-1.449064,-0.486922\H,0,1.386951,-0.691828,1.097108\N
 ,0,2.637813,0.252447,-0.370362\H,0,2.663477,1.14038,0.185221\C,0,3.910
 7,-0.45352,-0.158839\N,0,4.228464,-0.561312,1.256782\H,0,3.546917,-1.1
 63561,1.699152\H,0,4.142688,0.389081,1.687839\N,0,4.953803,0.388004,-0
 .712869\H,0,4.684741,0.623368,-1.661812\H,0,4.939028,1.324049,-0.23742
 1\C,0,-3.634014,-0.44553,-0.088747\O,0,-4.586522,0.257947,0.524834\O,0
 ,-3.789113,-1.585375,-0.425703\\Version=ES64L-G16RevC.01\State=1-A\HF=
 -607.1328007\RMSD=2.265e-09\Dipole=-5.5477338,2.2787238,0.3361834\Quad
 rupole=-57.8580241,27.2005607,30.6574634,-2.1130073,0.3186416,-1.25973
 3\PG=C01 [X(C6H15N4O2)]\\@
 The archive entry for this job was punched.


 PENOTUS DIED A HUNDRED YEARS OLD WANTING BUT TWO...
 AND HE USED TO SAY BEFORE HE DIED, HAVING SPENT HIS
 WHOLE LIFE IN VAINLY SEARCHING AFTER THE PHILOSOPHER'S
 STONE, THAT IF HE HAD A MORTAL ENEMY HE DID NOT DARE
 TO ENCOUNTER OPENLY, HE WOULD ADVISE HIM ABOVE ALL
 THINGS TO GIVE HIMSELF UP TO THE STUDY AND PRACTICE
 OF ALCHEMY.  --  NICOLAS LEMERY, M.D.
 "A COURSE OF CHYMISTRY", WALTER KETTILBY, LONDON, 1686
 Job cpu time:       0 days  0 hours 49 minutes 21.8 seconds.
 Elapsed time:       0 days  0 hours 49 minutes 28.0 seconds.
 File lengths (MBytes):  RWF=    118 Int=      0 D2E=      0 Chk=     13 Scr=      1
 Normal termination of Gaussian 16 at Wed Jun 11 03:02:34 2025.
