 Entering Gaussian System, Link 0=g16
 Initial command:
 /opt/gaussian/g16/l1.exe "/scratch/Gau-229467.inp" -scrdir="/scratch/"
 Entering Link 1 = /opt/gaussian/g16/l1.exe PID=    229468.
  
 Copyright (c) 1988-2019, Gaussian, Inc.  All Rights Reserved.
  
 This is part of the Gaussian(R) 16 program.  It is based on
 the Gaussian(R) 09 system (copyright 2009, Gaussian, Inc.),
 the Gaussian(R) 03 system (copyright 2003, Gaussian, Inc.),
 the Gaussian(R) 98 system (copyright 1998, Gaussian, Inc.),
 the Gaussian(R) 94 system (copyright 1995, Gaussian, Inc.),
 the Gaussian 92(TM) system (copyright 1992, Gaussian, Inc.),
 the Gaussian 90(TM) system (copyright 1990, Gaussian, Inc.),
 the Gaussian 88(TM) system (copyright 1988, Gaussian, Inc.),
 the Gaussian 86(TM) system (copyright 1986, Carnegie Mellon
 University), and the Gaussian 82(TM) system (copyright 1983,
 Carnegie Mellon University). Gaussian is a federally registered
 trademark of Gaussian, Inc.
  
 This software contains proprietary and confidential information,
 including trade secrets, belonging to Gaussian, Inc.
  
 This software is provided under written license and may be
 used, copied, transmitted, or stored only in accord with that
 written license.
  
 The following legend is applicable only to US Government
 contracts under FAR:
  
                    RESTRICTED RIGHTS LEGEND
  
 Use, reproduction and disclosure by the US Government is
 subject to restrictions as set forth in subparagraphs (a)
 and (c) of the Commercial Computer Software - Restricted
 Rights clause in FAR 52.227-19.
  
 Gaussian, Inc.
 340 Quinnipiac St., Bldg. 40, Wallingford CT 06492
  
  
 ---------------------------------------------------------------
 Warning -- This program may not be used in any manner that
 competes with the business of Gaussian, Inc. or will provide
 assistance to any competitor of Gaussian, Inc.  The licensee
 of this program is prohibited from giving any competitor of
 Gaussian, Inc. access to this program.  By using this program,
 the user acknowledges that Gaussian, Inc. is engaged in the
 business of creating and licensing software in the field of
 computational chemistry and represents and warrants to the
 licensee that it is not a competitor of Gaussian, Inc. and that
 it will not use this program in any manner prohibited above.
 ---------------------------------------------------------------
  

 Cite this work as:
 Gaussian 16, Revision C.01,
 M. J. Frisch, G. W. Trucks, H. B. Schlegel, G. E. Scuseria, 
 M. A. Robb, J. R. Cheeseman, G. Scalmani, V. Barone, 
 G. A. Petersson, H. Nakatsuji, X. Li, M. Caricato, A. V. Marenich, 
 J. Bloino, B. G. Janesko, R. Gomperts, B. Mennucci, H. P. Hratchian, 
 J. V. Ortiz, A. F. Izmaylov, J. L. Sonnenberg, D. Williams-Young, 
 F. Ding, F. Lipparini, F. Egidi, J. Goings, B. Peng, A. Petrone, 
 T. Henderson, D. Ranasinghe, V. G. Zakrzewski, J. Gao, N. Rega, 
 G. Zheng, W. Liang, M. Hada, M. Ehara, K. Toyota, R. Fukuda, 
 J. Hasegawa, M. Ishida, T. Nakajima, Y. Honda, O. Kitao, H. Nakai, 
 T. Vreven, K. Throssell, J. A. Montgomery, Jr., J. E. Peralta, 
 F. Ogliaro, M. J. Bearpark, J. J. Heyd, E. N. Brothers, K. N. Kudin, 
 V. N. Staroverov, T. A. Keith, R. Kobayashi, J. Normand, 
 K. Raghavachari, A. P. Rendell, J. C. Burant, S. S. Iyengar, 
 J. Tomasi, M. Cossi, J. M. Millam, M. Klene, C. Adamo, R. Cammi, 
 J. W. Ochterski, R. L. Martin, K. Morokuma, O. Farkas, 
 J. B. Foresman, and D. J. Fox, Gaussian, Inc., Wallingford CT, 2019.
 
 ******************************************
 Gaussian 16:  ES64L-G16RevC.01  3-Jul-2019
                11-Jun-2025 
 ******************************************
 ---------------------------------------------
 # wB97xD/Def2TZVP SCF(Tight) Int(Grid=299974)
 ---------------------------------------------
 1/38=1,172=1/1;
 2/12=2,17=6,18=5,40=1/2;
 3/5=44,7=101,11=2,25=1,30=1,74=-58,75=299974/1,2,3;
 4//1;
 5/5=2,32=2,38=5/2;
 6/7=2,8=2,9=2,10=2,28=1/1;
 99/5=1,9=1/99;
 -----------------
 Displacement_0.03
 -----------------
 Symbolic Z-matrix:
 Charge = -1 Multiplicity = 1
 N                    -2.44939   1.66211   0.31258 
 H                    -1.8926    1.66173   1.15867 
 H                    -2.08055   2.39618  -0.2733 
 H                    -4.1774    1.14129   0.66201 
 C                    -2.34829   0.35429  -0.35133 
 H                    -2.34121   0.52504  -1.4324 
 C                    -1.09445  -0.434     0.01895 
 H                    -1.1588   -1.42065  -0.44229 
 H                    -1.09439  -0.60081   1.10359 
 C                     0.18947   0.26903  -0.40151 
 H                     0.22625   1.27477   0.0337 
 H                     0.20219   0.4038   -1.48811 
 C                     1.45499  -0.47538   0.01098 
 H                     1.50015  -1.44896  -0.48702 
 H                     1.38705  -0.69173   1.09711 
 N                     2.63781   0.25245  -0.37036 
 H                     2.66348   1.14038   0.18512 
 C                     3.9108   -0.45352  -0.15894 
 N                     4.22856  -0.56141   1.25628 
 H                     3.54652  -1.15996   1.70285 
 H                     4.14019   0.38708   1.69224 
 N                     4.9539    0.3884   -0.71307 
 H                     4.68394   0.61887  -1.66271 
 H                     4.93873   1.32155  -0.23342 
 C                    -3.63401  -0.44553  -0.08875 
 O                    -4.58652   0.25795   0.52483 
 O                    -3.78911  -1.58538  -0.4257 
 
                          Input orientation:                          
 ---------------------------------------------------------------------
 Center     Atomic      Atomic             Coordinates (Angstroms)
 Number     Number       Type             X           Y           Z
 ---------------------------------------------------------------------
      1          7           0       -2.449391    1.662106    0.312579
      2          1           0       -1.892601    1.661727    1.158668
      3          1           0       -2.080546    2.396181   -0.273303
      4          1           0       -4.177396    1.141286    0.662011
      5          6           0       -2.348291    0.354291   -0.351331
      6          1           0       -2.341210    0.525036   -1.432399
      7          6           0       -1.094454   -0.433998    0.018947
      8          1           0       -1.158799   -1.420651   -0.442292
      9          1           0       -1.094388   -0.600813    1.103594
     10          6           0        0.189472    0.269027   -0.401511
     11          1           0        0.226249    1.274775    0.033698
     12          1           0        0.202187    0.403801   -1.488111
     13          6           0        1.454987   -0.475381    0.010983
     14          1           0        1.500154   -1.448964   -0.487022
     15          1           0        1.387051   -0.691728    1.097108
     16          7           0        2.637813    0.252447   -0.370362
     17          1           0        2.663477    1.140380    0.185121
     18          6           0        3.910800   -0.453520   -0.158939
     19          7           0        4.228564   -0.561412    1.256282
     20          1           0        3.546517   -1.159961    1.702852
     21          1           0        4.140188    0.387081    1.692239
     22          7           0        4.953903    0.388404   -0.713069
     23          1           0        4.683941    0.618868   -1.662712
     24          1           0        4.938728    1.321549   -0.233421
     25          6           0       -3.634014   -0.445530   -0.088747
     26          8           0       -4.586522    0.257947    0.524834
     27          8           0       -3.789113   -1.585375   -0.425703
 ---------------------------------------------------------------------
                    Distance matrix (angstroms):
                    1          2          3          4          5
     1  N    0.000000
     2  H    1.012858   0.000000
     3  H    1.009044   1.620274   0.000000
     4  H    1.838303   2.395374   2.616554   0.000000
     5  C    1.470162   2.048692   2.060847   2.234244   0.000000
     6  H    2.085565   2.864777   2.216446   2.852700   1.094492
     7  C    2.513111   2.515565   3.011262   3.521304   1.526634
     8  H    3.426200   3.550013   3.930188   4.110345   2.138594
     9  H    2.753641   2.399847   3.442430   3.568591   2.145065
    10  C    3.068255   2.951068   3.113552   4.578368   2.539691
    11  H    2.717876   2.429982   2.583235   4.450246   2.761122
    12  H    3.443353   3.602215   3.264385   4.934334   2.792787
    13  C    4.461387   4.134097   4.563626   5.895862   3.909546
    14  H    5.090877   4.888300   5.258539   6.345411   4.252137
    15  H    4.568841   4.037160   4.841223   5.874719   4.140641
    16  N    5.322893   4.984842   5.183428   6.950029   4.987180
    17  H    5.140998   4.688011   4.928787   6.857475   5.101327
    18  C    6.719392   6.315839   6.635518   8.284702   6.313936
    19  N    7.101387   6.513105   7.133853   8.597238   6.832127
    20  H    6.771103   6.151590   6.943715   8.126372   6.423503
    21  H    6.852131   6.189020   6.826227   8.415010   6.802765
    22  N    7.581757   7.211059   7.328577   9.264896   7.311228
    23  H    7.474928   7.231780   7.130749   9.176086   7.158352
    24  H    7.416090   6.980021   7.101171   9.161769   7.351880
    25  C    2.450821   3.004845   3.243863   1.837631   1.536798
    26  O    2.565939   3.103152   3.389540   0.983102   2.405541
    27  O    3.589714   4.080522   4.335345   2.961176   2.417396
                    6          7          8          9         10
     6  H    0.000000
     7  C    2.140222   0.000000
     8  H    2.482762   1.091039   0.000000
     9  H    3.041934   1.097400   1.751013   0.000000
    10  C    2.744562   1.522989   2.162061   2.161078   0.000000
    11  H    3.050147   2.159717   3.067612   2.531124   1.096489
    12  H    2.546894   2.157408   2.504924   3.067131   1.095000
    13  C    4.182738   2.549789   2.816180   2.776481   1.525065
    14  H    4.421141   2.831634   2.659480   3.159283   2.162566
    15  H    4.666782   2.717853   3.063076   2.483112   2.145485
    16  N    5.098323   3.814785   4.149541   4.102429   2.448595
    17  H    5.295461   4.077784   4.643525   4.242275   2.687767
    18  C    6.454990   5.008452   5.168797   5.164067   3.798578
    19  N    7.181316   5.466420   5.713766   5.325287   4.444341
    20  H    6.879996   4.990107   5.177799   4.712723   4.211900
    21  H    7.196590   5.556578   5.991943   5.359405   4.472794
    22  N    7.331765   6.147749   6.380527   6.392233   4.776099
    23  H    7.029552   6.109530   6.307668   6.521438   4.681161
    24  H    7.420881   6.288475   6.689030   6.471597   4.867390
    25  C    2.102080   2.541869   2.683756   2.809891   3.902238
    26  O    2.990572   3.595726   3.937297   3.642449   4.865014
    27  O    2.750217   2.963877   2.635519   3.251101   4.389593
                   11         12         13         14         15
    11  H    0.000000
    12  H    1.753590   0.000000
    13  C    2.138541   2.142371   0.000000
    14  H    3.051678   2.473790   1.094492   0.000000
    15  H    2.519015   3.047531   1.109544   1.759451   0.000000
    16  N    2.650294   2.684128   1.440220   2.050043   2.146937
    17  H    2.445623   3.065975   2.025205   2.917156   2.411971
    18  C    4.074313   4.031812   2.461782   2.628642   2.829082
    19  N    4.569991   4.967398   3.041529   3.357243   2.848950
    20  H    4.442769   4.879768   2.775891   3.011092   2.291170
    21  H    4.342543   5.061893   3.283408   3.884587   3.016251
    22  N    4.867651   4.814533   3.675975   3.918597   4.143170
    23  H    4.814461   4.490307   3.797997   3.974252   4.494858
    24  H    4.720275   4.985111   3.927485   4.423104   4.293949
    25  C    4.228010   4.170854   5.090066   5.246445   5.165071
    26  O    4.943472   5.196629   6.107507   6.401955   6.075603
    27  O    4.951226   4.584322   5.378045   5.291381   5.469025
                   16         17         18         19         20
    16  N    0.000000
    17  H    1.047686   0.000000
    18  C    1.470913   2.052976   0.000000
    19  N    2.416366   2.548132   1.454464   0.000000
    20  H    2.668118   2.893931   2.024358   1.011372   0.000000
    21  H    2.555304   2.240433   2.045993   1.047620   1.657075
    22  N    2.345252   2.572599   1.450503   2.303608   3.196067
    23  H    2.447667   2.787245   2.002273   3.181345   3.973032
    24  H    2.540855   2.320510   2.052572   2.503815   3.441700
    25  C    6.316826   6.499885   7.545145   7.977635   7.435070
    26  O    7.279589   7.311401   8.554426   8.883249   8.339335
    27  O    6.684761   7.031270   7.787228   8.255950   7.650045
                   21         22         23         24         25
    21  H    0.000000
    22  N    2.539220   0.000000
    23  H    3.406624   1.013812   0.000000
    24  H    2.284527   1.049310   1.612932   0.000000
    25  C    8.018938   8.650869   8.532215   8.754165   0.000000
    26  O    8.805395   9.621285   9.531899   9.614395   1.333654
    27  O    8.440976   8.967648   8.842032   9.201217   1.198683
                   26         27
    26  O    0.000000
    27  O    2.221985   0.000000
 Stoichiometry    C6H15N4O2(1-)
 Framework group  C1[X(C6H15N4O2)]
 Deg. of freedom    75
 Full point group                 C1      NOp   1
 Largest Abelian subgroup         C1      NOp   1
 Largest concise Abelian subgroup C1      NOp   1
                         Standard orientation:                         
 ---------------------------------------------------------------------
 Center     Atomic      Atomic             Coordinates (Angstroms)
 Number     Number       Type             X           Y           Z
 ---------------------------------------------------------------------
      1          7           0       -2.449366    1.661813    0.314448
      2          1           0       -1.892626    1.660463    1.160569
      3          1           0       -2.080441    2.396514   -0.270599
      4          1           0       -4.177424    1.140714    0.663201
      5          6           0       -2.348308    0.354728   -0.350904
      6          1           0       -2.341153    0.526669   -1.431781
      7          6           0       -1.094542   -0.434049    0.018575
      8          1           0       -1.158921   -1.420186   -0.443759
      9          1           0       -1.094551   -0.602064    1.103037
     10          6           0        0.189452    0.269362   -0.401028
     11          1           0        0.226266    1.274625    0.035296
     12          1           0        0.202240    0.405338   -1.487478
     13          6           0        1.454897   -0.475581    0.010716
     14          1           0        1.500033   -1.448615   -0.488364
     15          1           0        1.386883   -0.693127    1.096597
     16          7           0        2.637791    0.252595   -0.369753
     17          1           0        2.663477    1.139911    0.186714
     18          6           0        3.910721   -0.453685   -0.159037
     19          7           0        4.228395   -0.563164    1.256083
     20          1           0        3.546284   -1.162164    1.701950
     21          1           0        4.140052    0.384852    1.693084
     22          7           0        4.953909    0.388787   -0.712173
     23          1           0        4.684018    0.620319   -1.661576
     24          1           0        4.938764    1.321401   -0.231493
     25          6           0       -3.634096   -0.445303   -0.089281
     26          8           0       -4.586597    0.257553    0.525022
     27          8           0       -3.789246   -1.584765   -0.427508
 ---------------------------------------------------------------------
 Rotational constants (GHZ):           2.7669386           0.2562225           0.2486512
 Standard basis: def2TZVP (5D, 7F)
 There are   522 symmetry adapted cartesian basis functions of A   symmetry.
 There are   462 symmetry adapted basis functions of A   symmetry.
   462 basis functions,   732 primitive gaussians,   522 cartesian basis functions
    48 alpha electrons       48 beta electrons
       nuclear repulsion energy       711.3564162061 Hartrees.
 NAtoms=   27 NActive=   27 NUniq=   27 SFac= 1.00D+00 NAtFMM=   60 NAOKFM=F Big=F
 Integral buffers will be    131072 words long.
 Raffenetti 2 integral format.
 Two-electron integral symmetry is turned on.
 Nuclear repulsion after empirical dispersion term =      711.3389087795 Hartrees.
 One-electron integrals computed using PRISM.
   1 Symmetry operations used in ECPInt.
 ECPInt:  NShTT=   18528 NPrTT=   54924 LenC2=   16268 LenP2D=   36012.
 LDataN:  DoStor=T MaxTD1= 6 Len=  172
 NBasis=   462 RedAO= T EigKep=  7.71D-05  NBF=   462
 NBsUse=   462 1.00D-06 EigRej= -1.00D+00 NBFU=   462
 ExpMin= 9.52D-02 ExpMax= 2.70D+04 ExpMxC= 9.22D+02 IAcc=4 IRadAn=    299974 AccDes= 0.00D+00
 Harris functional with IExCor= 4639 and IRadAn=  299974 diagonalized for initial guess.
 HarFok:  IExCor= 4639 AccDes= 0.00D+00 IRadAn=    299974 IDoV= 1 UseB2=F ITyADJ=14
 ICtDFT=  3500011 ScaDFX=  1.000000  1.000000  1.000000  1.000000
 FoFCou: FMM=F IPFlag=           0 FMFlag=      100000 FMFlg1=           0
         NFxFlg=           0 DoJE=T BraDBF=F KetDBF=T FulRan=T
         wScrn=  0.000000 ICntrl=       500 IOpCl=  0 I1Cent=   200000004 NGrid=           0
         NMat0=    1 NMatS0=      1 NMatT0=    0 NMatD0=    1 NMtDS0=    0 NMtDT0=    0
 Petite list used in FoFCou.
 Requested convergence on RMS density matrix=1.00D-08 within 128 cycles.
 Requested convergence on MAX density matrix=1.00D-06.
 Requested convergence on             energy=1.00D-06.
 No special actions if energy rises.
 Integral accuracy reduced to 1.0D-05 until final iterations.
 Initial convergence to 1.0D-05 achieved.  Increase integral accuracy.
 SCF Done:  E(RwB97XD) =  -607.132929502     A.U. after   17 cycles
            NFock= 17  Conv=0.23D-08     -V/T= 2.0045

 **********************************************************************

            Population analysis using the SCF Density.

 **********************************************************************

 Orbital symmetries:
       Occupied  (A) (A) (A) (A) (A) (A) (A) (A) (A) (A) (A) (A)
                 (A) (A) (A) (A) (A) (A) (A) (A) (A) (A) (A) (A)
                 (A) (A) (A) (A) (A) (A) (A) (A) (A) (A) (A) (A)
                 (A) (A) (A) (A) (A) (A) (A) (A) (A) (A) (A) (A)
       Virtual   (A) (A) (A) (A) (A) (A) (A) (A) (A) (A) (A) (A)
                 (A) (A) (A) (A) (A) (A) (A) (A) (A) (A) (A) (A)
                 (A) (A) (A) (A) (A) (A) (A) (A) (A) (A) (A) (A)
                 (A) (A) (A) (A) (A) (A) (A) (A) (A) (A) (A) (A)
                 (A) (A) (A) (A) (A) (A) (A) (A) (A) (A) (A) (A)
                 (A) (A) (A) (A) (A) (A) (A) (A) (A) (A) (A) (A)
                 (A) (A) (A) (A) (A) (A) (A) (A) (A) (A) (A) (A)
                 (A) (A) (A) (A) (A) (A) (A) (A) (A) (A) (A) (A)
                 (A) (A) (A) (A) (A) (A) (A) (A) (A) (A) (A) (A)
                 (A) (A) (A) (A) (A) (A) (A) (A) (A) (A) (A) (A)
                 (A) (A) (A) (A) (A) (A) (A) (A) (A) (A) (A) (A)
                 (A) (A) (A) (A) (A) (A) (A) (A) (A) (A) (A) (A)
                 (A) (A) (A) (A) (A) (A) (A) (A) (A) (A) (A) (A)
                 (A) (A) (A) (A) (A) (A) (A) (A) (A) (A) (A) (A)
                 (A) (A) (A) (A) (A) (A) (A) (A) (A) (A) (A) (A)
                 (A) (A) (A) (A) (A) (A) (A) (A) (A) (A) (A) (A)
                 (A) (A) (A) (A) (A) (A) (A) (A) (A) (A) (A) (A)
                 (A) (A) (A) (A) (A) (A) (A) (A) (A) (A) (A) (A)
                 (A) (A) (A) (A) (A) (A) (A) (A) (A) (A) (A) (A)
                 (A) (A) (A) (A) (A) (A) (A) (A) (A) (A) (A) (A)
                 (A) (A) (A) (A) (A) (A) (A) (A) (A) (A) (A) (A)
                 (A) (A) (A) (A) (A) (A) (A) (A) (A) (A) (A) (A)
                 (A) (A) (A) (A) (A) (A) (A) (A) (A) (A) (A) (A)
                 (A) (A) (A) (A) (A) (A) (A) (A) (A) (A) (A) (A)
                 (A) (A) (A) (A) (A) (A) (A) (A) (A) (A) (A) (A)
                 (A) (A) (A) (A) (A) (A) (A) (A) (A) (A) (A) (A)
                 (A) (A) (A) (A) (A) (A) (A) (A) (A) (A) (A) (A)
                 (A) (A) (A) (A) (A) (A) (A) (A) (A) (A) (A) (A)
                 (A) (A) (A) (A) (A) (A) (A) (A) (A) (A) (A) (A)
                 (A) (A) (A) (A) (A) (A) (A) (A) (A) (A) (A) (A)
                 (A) (A) (A) (A) (A) (A) (A) (A) (A) (A) (A) (A)
                 (A) (A) (A) (A) (A) (A) (A) (A) (A) (A) (A) (A)
                 (A) (A) (A) (A) (A) (A) (A) (A) (A) (A) (A) (A)
                 (A) (A) (A) (A) (A) (A) (A) (A) (A) (A) (A) (A)
                 (A) (A) (A) (A) (A) (A)
 The electronic state is 1-A.
 Alpha  occ. eigenvalues --  -19.20421 -19.14475 -14.37146 -14.23897 -14.22543
 Alpha  occ. eigenvalues --  -14.22175 -10.32613 -10.25467 -10.19390 -10.16788
 Alpha  occ. eigenvalues --  -10.15861 -10.09998  -1.12371  -1.03768  -0.94110
 Alpha  occ. eigenvalues --   -0.85529  -0.80062  -0.77098  -0.73946  -0.71246
 Alpha  occ. eigenvalues --   -0.62977  -0.60594  -0.56966  -0.54594  -0.51431
 Alpha  occ. eigenvalues --   -0.48813  -0.47891  -0.45818  -0.45276  -0.43373
 Alpha  occ. eigenvalues --   -0.41532  -0.40407  -0.39044  -0.37187  -0.36324
 Alpha  occ. eigenvalues --   -0.35018  -0.33856  -0.32682  -0.31886  -0.31185
 Alpha  occ. eigenvalues --   -0.30485  -0.28771  -0.28148  -0.26195  -0.18615
 Alpha  occ. eigenvalues --   -0.15540  -0.11875  -0.03609
 Alpha virt. eigenvalues --    0.15791   0.18122   0.20612   0.22637   0.23405
 Alpha virt. eigenvalues --    0.25101   0.25767   0.26600   0.27632   0.28134
 Alpha virt. eigenvalues --    0.29996   0.30979   0.32236   0.32763   0.33083
 Alpha virt. eigenvalues --    0.35028   0.35172   0.35386   0.36260   0.37532
 Alpha virt. eigenvalues --    0.37814   0.39304   0.40672   0.42141   0.43958
 Alpha virt. eigenvalues --    0.43986   0.44783   0.45626   0.46307   0.47427
 Alpha virt. eigenvalues --    0.47689   0.48632   0.49471   0.50856   0.51389
 Alpha virt. eigenvalues --    0.52559   0.53490   0.53960   0.54837   0.55456
 Alpha virt. eigenvalues --    0.56134   0.56433   0.57385   0.57792   0.59363
 Alpha virt. eigenvalues --    0.59584   0.60761   0.61436   0.61849   0.62397
 Alpha virt. eigenvalues --    0.62771   0.63787   0.63984   0.64798   0.65272
 Alpha virt. eigenvalues --    0.65707   0.66183   0.66894   0.67758   0.69147
 Alpha virt. eigenvalues --    0.69566   0.70080   0.70903   0.71886   0.72041
 Alpha virt. eigenvalues --    0.72122   0.73356   0.73821   0.74453   0.75427
 Alpha virt. eigenvalues --    0.77286   0.78258   0.78679   0.79353   0.80685
 Alpha virt. eigenvalues --    0.82295   0.82384   0.83632   0.84481   0.86002
 Alpha virt. eigenvalues --    0.86195   0.88816   0.90524   0.91043   0.92824
 Alpha virt. eigenvalues --    0.94829   0.96360   0.97955   0.99651   1.00778
 Alpha virt. eigenvalues --    1.02598   1.03878   1.06096   1.06381   1.08049
 Alpha virt. eigenvalues --    1.09080   1.09882   1.10157   1.13087   1.15382
 Alpha virt. eigenvalues --    1.16993   1.17500   1.18757   1.21135   1.22756
 Alpha virt. eigenvalues --    1.23820   1.26253   1.28247   1.29931   1.30606
 Alpha virt. eigenvalues --    1.33310   1.33975   1.36423   1.38058   1.40384
 Alpha virt. eigenvalues --    1.41076   1.43141   1.46335   1.47416   1.48688
 Alpha virt. eigenvalues --    1.49440   1.50769   1.52390   1.52781   1.53991
 Alpha virt. eigenvalues --    1.54971   1.55891   1.57204   1.58188   1.60380
 Alpha virt. eigenvalues --    1.61384   1.63478   1.64816   1.65493   1.66862
 Alpha virt. eigenvalues --    1.67489   1.70162   1.70860   1.72486   1.73595
 Alpha virt. eigenvalues --    1.73848   1.75753   1.77756   1.78328   1.80094
 Alpha virt. eigenvalues --    1.80334   1.81920   1.82915   1.85197   1.86717
 Alpha virt. eigenvalues --    1.88761   1.89483   1.92981   1.94007   1.95378
 Alpha virt. eigenvalues --    1.95384   1.96954   1.98678   1.99174   2.00957
 Alpha virt. eigenvalues --    2.02057   2.04143   2.05273   2.06096   2.08012
 Alpha virt. eigenvalues --    2.09346   2.09955   2.10737   2.11471   2.13439
 Alpha virt. eigenvalues --    2.15649   2.15992   2.16607   2.18383   2.20585
 Alpha virt. eigenvalues --    2.21380   2.22173   2.22608   2.23588   2.25004
 Alpha virt. eigenvalues --    2.25803   2.26479   2.27097   2.28698   2.29299
 Alpha virt. eigenvalues --    2.31672   2.32857   2.33477   2.36865   2.37513
 Alpha virt. eigenvalues --    2.40143   2.40499   2.43610   2.44424   2.45357
 Alpha virt. eigenvalues --    2.46096   2.48370   2.49040   2.51582   2.52023
 Alpha virt. eigenvalues --    2.54728   2.56335   2.58106   2.58611   2.60051
 Alpha virt. eigenvalues --    2.60906   2.62305   2.64948   2.65630   2.68053
 Alpha virt. eigenvalues --    2.68860   2.69007   2.71043   2.72018   2.73438
 Alpha virt. eigenvalues --    2.75119   2.76262   2.77478   2.79181   2.80334
 Alpha virt. eigenvalues --    2.81893   2.83028   2.83729   2.84223   2.86282
 Alpha virt. eigenvalues --    2.88620   2.89463   2.90248   2.90714   2.91117
 Alpha virt. eigenvalues --    2.94427   2.94860   2.95686   2.96444   2.97297
 Alpha virt. eigenvalues --    2.99691   3.03929   3.05097   3.06548   3.08031
 Alpha virt. eigenvalues --    3.09157   3.10323   3.12220   3.13482   3.14625
 Alpha virt. eigenvalues --    3.17032   3.18855   3.21681   3.22325   3.25162
 Alpha virt. eigenvalues --    3.25944   3.26140   3.28674   3.29369   3.30249
 Alpha virt. eigenvalues --    3.31863   3.32721   3.38258   3.38953   3.41127
 Alpha virt. eigenvalues --    3.41980   3.42886   3.44637   3.45181   3.46305
 Alpha virt. eigenvalues --    3.46532   3.48791   3.49869   3.51213   3.51871
 Alpha virt. eigenvalues --    3.52543   3.53628   3.54210   3.56663   3.58907
 Alpha virt. eigenvalues --    3.60476   3.62317   3.63972   3.64834   3.65983
 Alpha virt. eigenvalues --    3.68102   3.68992   3.69591   3.70855   3.74069
 Alpha virt. eigenvalues --    3.75427   3.76539   3.77767   3.81426   3.82022
 Alpha virt. eigenvalues --    3.83498   3.85683   3.86203   3.88397   3.92176
 Alpha virt. eigenvalues --    3.93963   3.95059   3.99585   4.04146   4.04798
 Alpha virt. eigenvalues --    4.06059   4.08013   4.11230   4.12512   4.13870
 Alpha virt. eigenvalues --    4.14086   4.18033   4.20563   4.21119   4.21908
 Alpha virt. eigenvalues --    4.26381   4.31488   4.32773   4.36579   4.37785
 Alpha virt. eigenvalues --    4.40523   4.43732   4.48614   4.51235   4.53636
 Alpha virt. eigenvalues --    4.54111   4.57235   4.58729   4.59856   4.60586
 Alpha virt. eigenvalues --    4.64104   4.66262   4.70273   4.74348   4.74750
 Alpha virt. eigenvalues --    4.77508   4.81544   4.84600   4.88358   4.89615
 Alpha virt. eigenvalues --    4.91614   4.93525   4.97707   4.98798   4.99526
 Alpha virt. eigenvalues --    5.00908   5.01962   5.07464   5.09556   5.10307
 Alpha virt. eigenvalues --    5.11862   5.12902   5.16902   5.18933   5.20689
 Alpha virt. eigenvalues --    5.24565   5.26056   5.27836   5.30269   5.30549
 Alpha virt. eigenvalues --    5.34049   5.35084   5.35288   5.38133   5.38600
 Alpha virt. eigenvalues --    5.41159   5.42192   5.45538   5.46687   5.48772
 Alpha virt. eigenvalues --    5.49606   5.52973   5.56809   5.59626   5.61339
 Alpha virt. eigenvalues --    5.63845   5.68274   5.70419   5.72309   5.72850
 Alpha virt. eigenvalues --    5.74261   5.76300   5.80433   5.86677   5.87752
 Alpha virt. eigenvalues --    5.93274   5.94198   5.96413   6.01194   6.10709
 Alpha virt. eigenvalues --    6.16550   6.20239   6.25859   6.35951   6.36441
 Alpha virt. eigenvalues --    6.53631   6.58951   6.63520   6.67847   6.89956
 Alpha virt. eigenvalues --    6.90133   6.97029   7.00755   7.19117   7.30569
 Alpha virt. eigenvalues --    7.34111   7.46542  22.62023  22.71233  22.73366
 Alpha virt. eigenvalues --   22.76949  22.80002  23.51682  32.20083  32.22210
 Alpha virt. eigenvalues --   32.30733  32.74919  44.02111  44.08742
          Condensed to atoms (all electrons):
               1          2          3          4          5          6
     1  N    6.771191   0.368696   0.372492   0.056219   0.142712  -0.044802
     2  H    0.368696   0.441785  -0.028764  -0.001653  -0.033594   0.005967
     3  H    0.372492  -0.028764   0.442051  -0.000773  -0.019362  -0.010993
     4  H    0.056219  -0.001653  -0.000773   0.358830  -0.017515   0.001364
     5  C    0.142712  -0.033594  -0.019362  -0.017515   5.404222   0.404316
     6  H   -0.044802   0.005967  -0.010993   0.001364   0.404316   0.578479
     7  C   -0.050477  -0.005903  -0.002920   0.003811   0.223451  -0.035760
     8  H    0.008512   0.000338  -0.000453  -0.000234  -0.044728  -0.003125
     9  H   -0.010422   0.004963  -0.000162  -0.000098  -0.024965   0.008546
    10  C    0.010087  -0.000151   0.001701  -0.000244  -0.041169  -0.003580
    11  H    0.017700   0.003241  -0.000420   0.000006  -0.024020  -0.000812
    12  H   -0.001739   0.000349   0.000414  -0.000046   0.005986   0.003027
    13  C    0.001908  -0.000499   0.000177   0.000005  -0.014476   0.000726
    14  H   -0.000105   0.000051  -0.000006   0.000000   0.001674  -0.000011
    15  H    0.000065  -0.000007   0.000048  -0.000002   0.002209  -0.000246
    16  N    0.000117   0.000005   0.000008  -0.000000  -0.000983  -0.000071
    17  H   -0.000183   0.000109   0.000004  -0.000001   0.001143  -0.000056
    18  C    0.000017  -0.000009   0.000000  -0.000000  -0.000154   0.000004
    19  N   -0.000000   0.000002   0.000000   0.000000   0.000025  -0.000001
    20  H   -0.000000   0.000000  -0.000000   0.000000   0.000006   0.000000
    21  H   -0.000001   0.000005   0.000000  -0.000000   0.000027  -0.000001
    22  N   -0.000000   0.000000   0.000000  -0.000000  -0.000002  -0.000000
    23  H   -0.000000  -0.000000   0.000000   0.000000   0.000001  -0.000000
    24  H   -0.000000   0.000000   0.000000  -0.000000   0.000007  -0.000000
    25  C   -0.006131  -0.000625   0.000448  -0.034423   0.233425  -0.014177
    26  O   -0.045385   0.000868   0.000307   0.288909  -0.123788   0.001699
    27  O    0.005318  -0.000022  -0.000214   0.005001  -0.131374   0.002425
               7          8          9         10         11         12
     1  N   -0.050477   0.008512  -0.010422   0.010087   0.017700  -0.001739
     2  H   -0.005903   0.000338   0.004963  -0.000151   0.003241   0.000349
     3  H   -0.002920  -0.000453  -0.000162   0.001701  -0.000420   0.000414
     4  H    0.003811  -0.000234  -0.000098  -0.000244   0.000006  -0.000046
     5  C    0.223451  -0.044728  -0.024965  -0.041169  -0.024020   0.005986
     6  H   -0.035760  -0.003125   0.008546  -0.003580  -0.000812   0.003027
     7  C    5.318806   0.396205   0.389777   0.143611  -0.057150  -0.019885
     8  H    0.396205   0.532410  -0.016383  -0.017530   0.007855  -0.006887
     9  H    0.389777  -0.016383   0.599560  -0.058437  -0.005999   0.008371
    10  C    0.143611  -0.017530  -0.058437   5.298596   0.411710   0.355425
    11  H   -0.057150   0.007855  -0.005999   0.411710   0.667199  -0.042593
    12  H   -0.019885  -0.006887   0.008371   0.355425  -0.042593   0.625075
    13  C   -0.057169   0.005369   0.006264   0.143662  -0.032362  -0.025308
    14  H   -0.027778   0.003423  -0.001402   0.045673   0.012302  -0.014161
    15  H    0.048936  -0.002746   0.004917  -0.094468  -0.014902   0.018647
    16  N    0.011392   0.000135   0.000220  -0.099787  -0.005335   0.018830
    17  H   -0.002440  -0.000159  -0.000382   0.039562   0.018997  -0.000477
    18  C   -0.002917  -0.000090   0.000161  -0.006137  -0.001809  -0.000125
    19  N    0.001526  -0.000005  -0.000138   0.006795  -0.000285   0.000202
    20  H   -0.000155   0.000012  -0.000042   0.001533   0.000065  -0.000127
    21  H    0.000042  -0.000014  -0.000053   0.005648   0.000966   0.000080
    22  N   -0.000111  -0.000000  -0.000001  -0.001156  -0.000050  -0.000135
    23  H    0.000074  -0.000002   0.000001  -0.000380  -0.000081   0.000362
    24  H    0.000002  -0.000003  -0.000001   0.002458   0.000307   0.000226
    25  C   -0.018195  -0.002255  -0.002192  -0.004069  -0.000423   0.000697
    26  O   -0.001460   0.000947   0.002265  -0.000663  -0.000009   0.000012
    27  O    0.011583   0.012345   0.000308  -0.001352  -0.000079   0.000025
              13         14         15         16         17         18
     1  N    0.001908  -0.000105   0.000065   0.000117  -0.000183   0.000017
     2  H   -0.000499   0.000051  -0.000007   0.000005   0.000109  -0.000009
     3  H    0.000177  -0.000006   0.000048   0.000008   0.000004   0.000000
     4  H    0.000005   0.000000  -0.000002  -0.000000  -0.000001  -0.000000
     5  C   -0.014476   0.001674   0.002209  -0.000983   0.001143  -0.000154
     6  H    0.000726  -0.000011  -0.000246  -0.000071  -0.000056   0.000004
     7  C   -0.057169  -0.027778   0.048936   0.011392  -0.002440  -0.002917
     8  H    0.005369   0.003423  -0.002746   0.000135  -0.000159  -0.000090
     9  H    0.006264  -0.001402   0.004917   0.000220  -0.000382   0.000161
    10  C    0.143662   0.045673  -0.094468  -0.099787   0.039562  -0.006137
    11  H   -0.032362   0.012302  -0.014902  -0.005335   0.018997  -0.001809
    12  H   -0.025308  -0.014161   0.018647   0.018830  -0.000477  -0.000125
    13  C    5.208641   0.281895   0.344358   0.436863  -0.165917  -0.067537
    14  H    0.281895   0.678095  -0.070631  -0.055529   0.043824   0.035273
    15  H    0.344358  -0.070631   0.864614  -0.103603  -0.005669  -0.033001
    16  N    0.436863  -0.055529  -0.103603   6.814990   0.147676   0.523361
    17  H   -0.165917   0.043824  -0.005669   0.147676   1.009967  -0.282740
    18  C   -0.067537   0.035273  -0.033001   0.523361  -0.282740   5.699144
    19  N    0.014707  -0.002976   0.040572  -0.161630  -0.016092   0.350398
    20  H    0.004920   0.001082  -0.002319   0.005938  -0.000326  -0.074129
    21  H   -0.015943   0.008309   0.006547  -0.044048   0.128074  -0.276074
    22  N    0.007121   0.003297  -0.000259  -0.175195   0.026055   0.413971
    23  H    0.001145  -0.000567   0.000515   0.013885   0.001322  -0.076940
    24  H   -0.007778   0.002681   0.001201  -0.044490   0.103611  -0.250323
    25  C   -0.000301  -0.000138   0.000416  -0.000002   0.000008  -0.000003
    26  O    0.000004  -0.000001  -0.000001  -0.000000  -0.000000   0.000000
    27  O    0.000197  -0.000029  -0.000004  -0.000000   0.000000   0.000000
              19         20         21         22         23         24
     1  N   -0.000000  -0.000000  -0.000001  -0.000000  -0.000000  -0.000000
     2  H    0.000002   0.000000   0.000005   0.000000  -0.000000   0.000000
     3  H    0.000000  -0.000000   0.000000   0.000000   0.000000   0.000000
     4  H    0.000000   0.000000  -0.000000  -0.000000   0.000000  -0.000000
     5  C    0.000025   0.000006   0.000027  -0.000002   0.000001   0.000007
     6  H   -0.000001   0.000000  -0.000001  -0.000000  -0.000000  -0.000000
     7  C    0.001526  -0.000155   0.000042  -0.000111   0.000074   0.000002
     8  H   -0.000005   0.000012  -0.000014  -0.000000  -0.000002  -0.000003
     9  H   -0.000138  -0.000042  -0.000053  -0.000001   0.000001  -0.000001
    10  C    0.006795   0.001533   0.005648  -0.001156  -0.000380   0.002458
    11  H   -0.000285   0.000065   0.000966  -0.000050  -0.000081   0.000307
    12  H    0.000202  -0.000127   0.000080  -0.000135   0.000362   0.000226
    13  C    0.014707   0.004920  -0.015943   0.007121   0.001145  -0.007778
    14  H   -0.002976   0.001082   0.008309   0.003297  -0.000567   0.002681
    15  H    0.040572  -0.002319   0.006547  -0.000259   0.000515   0.001201
    16  N   -0.161630   0.005938  -0.044048  -0.175195   0.013885  -0.044490
    17  H   -0.016092  -0.000326   0.128074   0.026055   0.001322   0.103611
    18  C    0.350398  -0.074129  -0.276074   0.413971  -0.076940  -0.250323
    19  N    6.737449   0.390233   0.241080  -0.093504   0.013304  -0.025740
    20  H    0.390233   0.546398  -0.052921   0.009705  -0.001459  -0.001464
    21  H    0.241080  -0.052921   0.897746  -0.007863  -0.000479   0.094746
    22  N   -0.093504   0.009705  -0.007863   6.686457   0.367304   0.269674
    23  H    0.013304  -0.001459  -0.000479   0.367304   0.561468  -0.041144
    24  H   -0.025740  -0.001464   0.094746   0.269674  -0.041144   0.857319
    25  C    0.000000  -0.000000   0.000000  -0.000000   0.000000   0.000000
    26  O   -0.000000  -0.000000   0.000000  -0.000000  -0.000000   0.000000
    27  O    0.000000  -0.000000   0.000000   0.000000   0.000000   0.000000
              25         26         27
     1  N   -0.006131  -0.045385   0.005318
     2  H   -0.000625   0.000868  -0.000022
     3  H    0.000448   0.000307  -0.000214
     4  H   -0.034423   0.288909   0.005001
     5  C    0.233425  -0.123788  -0.131374
     6  H   -0.014177   0.001699   0.002425
     7  C   -0.018195  -0.001460   0.011583
     8  H   -0.002255   0.000947   0.012345
     9  H   -0.002192   0.002265   0.000308
    10  C   -0.004069  -0.000663  -0.001352
    11  H   -0.000423  -0.000009  -0.000079
    12  H    0.000697   0.000012   0.000025
    13  C   -0.000301   0.000004   0.000197
    14  H   -0.000138  -0.000001  -0.000029
    15  H    0.000416  -0.000001  -0.000004
    16  N   -0.000002  -0.000000  -0.000000
    17  H    0.000008  -0.000000   0.000000
    18  C   -0.000003   0.000000   0.000000
    19  N    0.000000  -0.000000   0.000000
    20  H   -0.000000  -0.000000  -0.000000
    21  H    0.000000   0.000000   0.000000
    22  N   -0.000000  -0.000000   0.000000
    23  H    0.000000  -0.000000   0.000000
    24  H    0.000000   0.000000   0.000000
    25  C    4.436038   0.392311   0.700651
    26  O    0.392311   7.953845  -0.085405
    27  O    0.700651  -0.085405   7.840558
 Mulliken charges:
               1
     1  N   -0.595788
     2  H    0.244846
     3  H    0.246417
     4  H    0.340844
     5  C    0.056926
     6  H    0.107082
     7  C   -0.266899
     8  H    0.127062
     9  H    0.095325
    10  C   -0.137333
    11  H    0.045980
    12  H    0.073758
    13  C   -0.070671
    14  H    0.055754
    15  H   -0.005189
    16  N   -0.282746
    17  H   -0.045912
    18  C    0.049658
    19  N   -0.495921
    20  H    0.173051
    21  H    0.014128
    22  N   -0.505307
    23  H    0.161671
    24  H    0.038711
    25  C    0.318943
    26  O   -0.384457
    27  O   -0.359932
 Sum of Mulliken charges =  -1.00000
 Mulliken charges with hydrogens summed into heavy atoms:
               1
     1  N   -0.104525
     5  C    0.164008
     7  C   -0.044512
    10  C   -0.017595
    13  C   -0.020106
    16  N   -0.328658
    18  C    0.049658
    19  N   -0.308742
    22  N   -0.304926
    25  C    0.318943
    26  O   -0.043614
    27  O   -0.359932
 Electronic spatial extent (au):  <R**2>=           4291.1551
 Charge=             -1.0000 electrons
 Dipole moment (field-independent basis, Debye):
    X=            -14.1002    Y=              5.7925    Z=              0.8610  Tot=             15.2679
 Quadrupole moment (field-independent basis, Debye-Ang):
   XX=           -197.7560   YY=            -83.3674   ZZ=            -78.6845
   XY=             -2.8361   XZ=              0.4180   YZ=             -1.6859
 Traceless Quadrupole moment (field-independent basis, Debye-Ang):
   XX=            -77.8201   YY=             36.5685   ZZ=             41.2515
   XY=             -2.8361   XZ=              0.4180   YZ=             -1.6859
 Octapole moment (field-independent basis, Debye-Ang**2):
  XXX=           -355.7390  YYY=             20.9279  ZZZ=             -3.2244  XYY=            -19.4409
  XXY=             94.2842  XXZ=             -8.3432  XZZ=            -34.0832  YZZ=              5.1541
  YYZ=              3.7818  XYZ=              3.9638
 Hexadecapole moment (field-independent basis, Debye-Ang**3):
 XXXX=          -8081.0803 YYYY=           -422.7692 ZZZZ=           -267.1984 XXXY=             53.6760
 XXXZ=            -25.7688 YYYX=            -25.9208 YYYZ=            -10.6756 ZZZX=            -33.9483
 ZZZY=             -0.7320 XXYY=          -1041.3063 XXZZ=           -949.1949 YYZZ=           -113.5446
 XXYZ=            -14.4630 YYXZ=             -7.1019 ZZXY=              4.0926
 N-N= 7.113389087795D+02 E-N=-2.854478318389D+03  KE= 6.044155472602D+02
 Unable to Open any file for archive entry.
 1\1\GINC-WATER\SP\RwB97XD\def2TZVP\C6H15N4O2(1-)\DAYALYZ\11-Jun-2025\0
 \\# wB97xD/Def2TZVP SCF(Tight) Int(Grid=299974)\\Displacement_0.03\\-1
 ,1\N,0,-2.449391,1.662106,0.312579\H,0,-1.892601,1.661727,1.158668\H,0
 ,-2.080546,2.396181,-0.273303\H,0,-4.177396,1.141286,0.662011\C,0,-2.3
 48291,0.354291,-0.351331\H,0,-2.34121,0.525036,-1.432399\C,0,-1.094454
 ,-0.433998,0.018947\H,0,-1.158799,-1.420651,-0.442292\H,0,-1.094388,-0
 .600813,1.103594\C,0,0.189472,0.269027,-0.401511\H,0,0.226249,1.274775
 ,0.033698\H,0,0.202187,0.403801,-1.488111\C,0,1.454987,-0.475381,0.010
 983\H,0,1.500154,-1.448964,-0.487022\H,0,1.387051,-0.691728,1.097108\N
 ,0,2.637813,0.252447,-0.370362\H,0,2.663477,1.14038,0.185121\C,0,3.910
 8,-0.45352,-0.158939\N,0,4.228564,-0.561412,1.256282\H,0,3.546517,-1.1
 59961,1.702852\H,0,4.140188,0.387081,1.692239\N,0,4.953903,0.388404,-0
 .713069\H,0,4.683941,0.618868,-1.662712\H,0,4.938728,1.321549,-0.23342
 1\C,0,-3.634014,-0.44553,-0.088747\O,0,-4.586522,0.257947,0.524834\O,0
 ,-3.789113,-1.585375,-0.425703\\Version=ES64L-G16RevC.01\State=1-A\HF=
 -607.1329295\RMSD=2.257e-09\Dipole=-5.5475562,2.2789691,0.3365385\Quad
 rupole=-57.8570064,27.1847857,30.6722207,-2.1135723,0.3184206,-1.24940
 81\PG=C01 [X(C6H15N4O2)]\\@
 The archive entry for this job was punched.


 Sacred cows make the best hamburger.
                               -- Mark Twain
 Job cpu time:       0 days  0 hours 49 minutes 31.8 seconds.
 Elapsed time:       0 days  0 hours 49 minutes 38.1 seconds.
 File lengths (MBytes):  RWF=    118 Int=      0 D2E=      0 Chk=     13 Scr=      1
 Normal termination of Gaussian 16 at Wed Jun 11 03:52:12 2025.
