 Entering Gaussian System, Link 0=g16
 Initial command:
 /opt/gaussian/g16/l1.exe "/scratch/Gau-3866136.inp" -scrdir="/scratch/"
 Entering Link 1 = /opt/gaussian/g16/l1.exe PID=   3866137.
  
 Copyright (c) 1988-2019, Gaussian, Inc.  All Rights Reserved.
  
 This is part of the Gaussian(R) 16 program.  It is based on
 the Gaussian(R) 09 system (copyright 2009, Gaussian, Inc.),
 the Gaussian(R) 03 system (copyright 2003, Gaussian, Inc.),
 the Gaussian(R) 98 system (copyright 1998, Gaussian, Inc.),
 the Gaussian(R) 94 system (copyright 1995, Gaussian, Inc.),
 the Gaussian 92(TM) system (copyright 1992, Gaussian, Inc.),
 the Gaussian 90(TM) system (copyright 1990, Gaussian, Inc.),
 the Gaussian 88(TM) system (copyright 1988, Gaussian, Inc.),
 the Gaussian 86(TM) system (copyright 1986, Carnegie Mellon
 University), and the Gaussian 82(TM) system (copyright 1983,
 Carnegie Mellon University). Gaussian is a federally registered
 trademark of Gaussian, Inc.
  
 This software contains proprietary and confidential information,
 including trade secrets, belonging to Gaussian, Inc.
  
 This software is provided under written license and may be
 used, copied, transmitted, or stored only in accord with that
 written license.
  
 The following legend is applicable only to US Government
 contracts under FAR:
  
                    RESTRICTED RIGHTS LEGEND
  
 Use, reproduction and disclosure by the US Government is
 subject to restrictions as set forth in subparagraphs (a)
 and (c) of the Commercial Computer Software - Restricted
 Rights clause in FAR 52.227-19.
  
 Gaussian, Inc.
 340 Quinnipiac St., Bldg. 40, Wallingford CT 06492
  
  
 ---------------------------------------------------------------
 Warning -- This program may not be used in any manner that
 competes with the business of Gaussian, Inc. or will provide
 assistance to any competitor of Gaussian, Inc.  The licensee
 of this program is prohibited from giving any competitor of
 Gaussian, Inc. access to this program.  By using this program,
 the user acknowledges that Gaussian, Inc. is engaged in the
 business of creating and licensing software in the field of
 computational chemistry and represents and warrants to the
 licensee that it is not a competitor of Gaussian, Inc. and that
 it will not use this program in any manner prohibited above.
 ---------------------------------------------------------------
  

 Cite this work as:
 Gaussian 16, Revision C.01,
 M. J. Frisch, G. W. Trucks, H. B. Schlegel, G. E. Scuseria, 
 M. A. Robb, J. R. Cheeseman, G. Scalmani, V. Barone, 
 G. A. Petersson, H. Nakatsuji, X. Li, M. Caricato, A. V. Marenich, 
 J. Bloino, B. G. Janesko, R. Gomperts, B. Mennucci, H. P. Hratchian, 
 J. V. Ortiz, A. F. Izmaylov, J. L. Sonnenberg, D. Williams-Young, 
 F. Ding, F. Lipparini, F. Egidi, J. Goings, B. Peng, A. Petrone, 
 T. Henderson, D. Ranasinghe, V. G. Zakrzewski, J. Gao, N. Rega, 
 G. Zheng, W. Liang, M. Hada, M. Ehara, K. Toyota, R. Fukuda, 
 J. Hasegawa, M. Ishida, T. Nakajima, Y. Honda, O. Kitao, H. Nakai, 
 T. Vreven, K. Throssell, J. A. Montgomery, Jr., J. E. Peralta, 
 F. Ogliaro, M. J. Bearpark, J. J. Heyd, E. N. Brothers, K. N. Kudin, 
 V. N. Staroverov, T. A. Keith, R. Kobayashi, J. Normand, 
 K. Raghavachari, A. P. Rendell, J. C. Burant, S. S. Iyengar, 
 J. Tomasi, M. Cossi, J. M. Millam, M. Klene, C. Adamo, R. Cammi, 
 J. W. Ochterski, R. L. Martin, K. Morokuma, O. Farkas, 
 J. B. Foresman, and D. J. Fox, Gaussian, Inc., Wallingford CT, 2019.
 
 ******************************************
 Gaussian 16:  ES64L-G16RevC.01  3-Jul-2019
                10-Jun-2025 
 ******************************************
 ---------------------------------------------
 # wB97xD/Def2TZVP SCF(Tight) Int(Grid=299974)
 ---------------------------------------------
 1/38=1,172=1/1;
 2/12=2,17=6,18=5,40=1/2;
 3/5=44,7=101,11=2,25=1,30=1,74=-58,75=299974/1,2,3;
 4//1;
 5/5=2,32=2,38=5/2;
 6/7=2,8=2,9=2,10=2,28=1/1;
 99/5=1,9=1/99;
 -----------------
 Displacement_-0.1
 -----------------
 Symbolic Z-matrix:
 Charge = -1 Multiplicity = 1
 N                    -2.44939   1.66211   0.31258 
 H                    -1.8926    1.66173   1.15867 
 H                    -2.08055   2.39618  -0.2733 
 H                    -4.1774    1.14129   0.66201 
 C                    -2.34829   0.35429  -0.35133 
 H                    -2.34121   0.52504  -1.4324 
 C                    -1.09445  -0.434     0.01895 
 H                    -1.1588   -1.42065  -0.44229 
 H                    -1.09439  -0.60081   1.10359 
 C                     0.18947   0.26903  -0.40151 
 H                     0.22625   1.27477   0.0337 
 H                     0.20219   0.4038   -1.48811 
 C                     1.45499  -0.47538   0.01098 
 H                     1.50015  -1.44766  -0.48832 
 H                     1.38835  -0.69043   1.09711 
 N                     2.63781   0.25245  -0.37036 
 H                     2.66348   1.14038   0.18382 
 C                     3.9121   -0.45352  -0.16024 
 N                     4.22986  -0.56271   1.24978 
 H                     3.54132  -1.11316   1.75095 
 H                     4.10769   0.36108   1.74944 
 N                     4.9552    0.3936   -0.71567 
 H                     4.67354   0.56037  -1.67441 
 H                     4.93483   1.28905  -0.18142 
 C                    -3.63401  -0.44553  -0.08875 
 O                    -4.58652   0.25795   0.52483 
 O                    -3.78911  -1.58538  -0.4257 
 
                          Input orientation:                          
 ---------------------------------------------------------------------
 Center     Atomic      Atomic             Coordinates (Angstroms)
 Number     Number       Type             X           Y           Z
 ---------------------------------------------------------------------
      1          7           0       -2.449391    1.662106    0.312579
      2          1           0       -1.892601    1.661727    1.158668
      3          1           0       -2.080546    2.396181   -0.273303
      4          1           0       -4.177396    1.141286    0.662011
      5          6           0       -2.348291    0.354291   -0.351331
      6          1           0       -2.341210    0.525036   -1.432399
      7          6           0       -1.094454   -0.433998    0.018947
      8          1           0       -1.158799   -1.420651   -0.442292
      9          1           0       -1.094388   -0.600813    1.103594
     10          6           0        0.189472    0.269027   -0.401511
     11          1           0        0.226249    1.274775    0.033698
     12          1           0        0.202187    0.403801   -1.488111
     13          6           0        1.454987   -0.475381    0.010983
     14          1           0        1.500154   -1.447664   -0.488322
     15          1           0        1.388351   -0.690428    1.097108
     16          7           0        2.637813    0.252447   -0.370362
     17          1           0        2.663477    1.140380    0.183821
     18          6           0        3.912100   -0.453520   -0.160239
     19          7           0        4.229864   -0.562712    1.249782
     20          1           0        3.541317   -1.113161    1.750952
     21          1           0        4.107688    0.361081    1.749439
     22          7           0        4.955203    0.393604   -0.715669
     23          1           0        4.673541    0.560368   -1.674412
     24          1           0        4.934828    1.289049   -0.181421
     25          6           0       -3.634014   -0.445530   -0.088747
     26          8           0       -4.586522    0.257947    0.524834
     27          8           0       -3.789113   -1.585375   -0.425703
 ---------------------------------------------------------------------
                    Distance matrix (angstroms):
                    1          2          3          4          5
     1  N    0.000000
     2  H    1.012858   0.000000
     3  H    1.009044   1.620274   0.000000
     4  H    1.838303   2.395374   2.616554   0.000000
     5  C    1.470162   2.048692   2.060847   2.234244   0.000000
     6  H    2.085565   2.864777   2.216446   2.852700   1.094492
     7  C    2.513111   2.515565   3.011262   3.521304   1.526634
     8  H    3.426200   3.550013   3.930188   4.110345   2.138594
     9  H    2.753641   2.399847   3.442430   3.568591   2.145065
    10  C    3.068255   2.951068   3.113552   4.578368   2.539691
    11  H    2.717876   2.429982   2.583235   4.450246   2.761122
    12  H    3.443353   3.602215   3.264385   4.934334   2.792787
    13  C    4.461387   4.134097   4.563626   5.895862   3.909546
    14  H    5.090287   4.887911   5.257641   6.345116   4.251628
    15  H    4.569263   4.037458   4.841325   5.875545   4.141486
    16  N    5.322893   4.984842   5.183428   6.950029   4.987180
    17  H    5.141031   4.688281   4.928666   6.857566   5.101190
    18  C    6.720714   6.317305   6.636670   8.286100   6.315186
    19  N    7.102155   6.514676   7.134151   8.598320   6.832026
    20  H    6.757189   6.130112   6.929533   8.114607   6.423433
    21  H    6.837581   6.167995   6.821096   8.392487   6.789179
    22  N    7.582506   7.212052   7.328558   9.266142   7.312682
    23  H    7.476505   7.235576   7.137997   9.172536   7.148366
    24  H    7.410121   6.967676   7.102792   9.152368   7.344826
    25  C    2.450821   3.004845   3.243863   1.837631   1.536798
    26  O    2.565939   3.103152   3.389540   0.983102   2.405541
    27  O    3.589714   4.080522   4.335345   2.961176   2.417396
                    6          7          8          9         10
     6  H    0.000000
     7  C    2.140222   0.000000
     8  H    2.482762   1.091039   0.000000
     9  H    3.041934   1.097400   1.751013   0.000000
    10  C    2.744562   1.522989   2.162061   2.161078   0.000000
    11  H    3.050147   2.159717   3.067612   2.531124   1.096489
    12  H    2.546894   2.157408   2.504924   3.067131   1.095000
    13  C    4.182738   2.549789   2.816180   2.776481   1.525065
    14  H    4.420283   2.831401   2.659489   3.159589   2.161585
    15  H    4.667482   2.718917   3.064466   2.484364   2.145629
    16  N    5.098323   3.814785   4.149541   4.102429   2.448595
    17  H    5.295064   4.077732   4.643349   4.242556   2.687484
    18  C    6.455993   5.009798   5.170001   5.165645   3.799769
    19  N    7.180272   5.466250   5.712868   5.326395   4.443346
    20  H    6.886330   4.995145   5.195764   4.708645   4.216445
    21  H    7.193001   5.539768   5.976131   5.329536   4.470736
    22  N    7.332709   6.150035   6.383359   6.395009   4.777699
    23  H    7.019013   6.093110   6.281620   6.506509   4.670335
    24  H    7.422223   6.273857   6.674041   6.447813   4.858733
    25  C    2.102080   2.541869   2.683756   2.809891   3.902238
    26  O    2.990572   3.595726   3.937297   3.642449   4.865014
    27  O    2.750217   2.963877   2.635519   3.251101   4.389593
                   11         12         13         14         15
    11  H    0.000000
    12  H    1.753590   0.000000
    13  C    2.138541   2.142371   0.000000
    14  H    3.050740   2.472290   1.093929   0.000000
    15  H    2.518600   3.047569   1.109213   1.760538   0.000000
    16  N    2.650294   2.684128   1.440220   2.049039   2.145609
    17  H    2.445543   3.065266   2.025094   2.916002   2.410788
    18  C    4.075551   4.032580   2.463169   2.629343   2.829550
    19  N    4.569918   4.965117   3.040097   3.354916   2.848476
    20  H    4.431803   4.893107   2.790525   3.048374   2.289427
    21  H    4.340988   5.073115   3.280049   3.883087   2.987641
    22  N    4.868369   4.815385   3.678950   3.921647   4.145325
    23  H    4.817305   4.477971   3.777886   3.938196   4.476415
    24  H    4.713512   4.988887   3.906344   4.402360   4.257988
    25  C    4.228010   4.170854   5.090066   5.246295   5.166273
    26  O    4.943472   5.196629   6.107507   6.401814   6.076678
    27  O    4.951226   4.584322   5.378045   5.291430   5.470468
                   16         17         18         19         20
    16  N    0.000000
    17  H    1.046997   0.000000
    18  C    1.471852   2.053766   0.000000
    19  N    2.413292   2.547619   1.449502   0.000000
    20  H    2.679772   2.881831   2.055543   1.014033   0.000000
    21  H    2.581839   2.268086   2.085354   1.057345   1.579293
    22  N    2.347224   2.572696   1.454024   2.302966   3.217706
    23  H    2.437119   2.798178   1.974964   3.163711   3.976902
    24  H    2.527157   2.305329   2.020636   2.444245   3.383275
    25  C    6.316826   6.499831   7.546457   7.977842   7.437446
    26  O    7.279589   7.311461   8.555822   8.884126   8.333371
    27  O    6.684761   7.031158   7.788469   8.255730   7.661333
                   21         22         23         24         25
    21  H    0.000000
    22  N    2.606932   0.000000
    23  H    3.476012   1.013080   0.000000
    24  H    2.296411   1.042908   1.681746   0.000000
    25  C    7.997718   8.652851   8.517138   8.743135   0.000000
    26  O    8.780637   9.622981   9.522442   9.603024   1.333654
    27  O    8.418990   8.970145   8.819297   9.188533   1.198683
                   26         27
    26  O    0.000000
    27  O    2.221985   0.000000
 Stoichiometry    C6H15N4O2(1-)
 Framework group  C1[X(C6H15N4O2)]
 Deg. of freedom    75
 Full point group                 C1      NOp   1
 Largest Abelian subgroup         C1      NOp   1
 Largest concise Abelian subgroup C1      NOp   1
                         Standard orientation:                         
 ---------------------------------------------------------------------
 Center     Atomic      Atomic             Coordinates (Angstroms)
 Number     Number       Type             X           Y           Z
 ---------------------------------------------------------------------
      1          7           0       -2.449473    1.663087    0.306246
      2          1           0       -1.892517    1.665994    1.152222
      3          1           0       -2.080893    2.395037   -0.282455
      4          1           0       -4.177302    1.143226    0.657967
      5          6           0       -2.348233    0.352814   -0.352777
      6          1           0       -2.341398    0.519507   -1.434478
      7          6           0       -1.094161   -0.433824    0.020208
      8          1           0       -1.158393   -1.422213   -0.437317
      9          1           0       -1.093849   -0.596573    1.105472
     10          6           0        0.189538    0.267883   -0.403134
     11          1           0        0.226193    1.275263    0.028295
     12          1           0        0.202013    0.398586   -1.490234
     13          6           0        1.455287   -0.474713    0.011900
     14          1           0        1.500557   -1.448852   -0.483766
     15          1           0        1.388907   -0.685701    1.098836
     16          7           0        2.637888    0.251923   -0.372403
     17          1           0        2.663478    1.141932    0.178443
     18          6           0        3.912362   -0.452990   -0.159885
     19          7           0        4.230424   -0.556830    1.250473
     20          1           0        3.542088   -1.105538    1.753838
     21          1           0        4.108155    0.368804    1.746688
     22          7           0        4.955182    0.392261   -0.718690
     23          1           0        4.673298    0.555372   -1.677997
     24          1           0        4.934727    1.289698   -0.187799
     25          6           0       -3.633739   -0.446282   -0.086945
     26          8           0       -4.586273    0.259295    0.524182
     27          8           0       -3.788669   -1.587413   -0.419595
 ---------------------------------------------------------------------
 Rotational constants (GHZ):           2.7668990           0.2561939           0.2486740
 Standard basis: def2TZVP (5D, 7F)
 There are   522 symmetry adapted cartesian basis functions of A   symmetry.
 There are   462 symmetry adapted basis functions of A   symmetry.
   462 basis functions,   732 primitive gaussians,   522 cartesian basis functions
    48 alpha electrons       48 beta electrons
       nuclear repulsion energy       711.3492032677 Hartrees.
 NAtoms=   27 NActive=   27 NUniq=   27 SFac= 1.00D+00 NAtFMM=   60 NAOKFM=F Big=F
 Integral buffers will be    131072 words long.
 Raffenetti 2 integral format.
 Two-electron integral symmetry is turned on.
 Nuclear repulsion after empirical dispersion term =      711.3316881580 Hartrees.
 One-electron integrals computed using PRISM.
   1 Symmetry operations used in ECPInt.
 ECPInt:  NShTT=   18528 NPrTT=   54924 LenC2=   16268 LenP2D=   36016.
 LDataN:  DoStor=T MaxTD1= 6 Len=  172
 NBasis=   462 RedAO= T EigKep=  7.72D-05  NBF=   462
 NBsUse=   462 1.00D-06 EigRej= -1.00D+00 NBFU=   462
 ExpMin= 9.52D-02 ExpMax= 2.70D+04 ExpMxC= 9.22D+02 IAcc=4 IRadAn=    299974 AccDes= 0.00D+00
 Harris functional with IExCor= 4639 and IRadAn=  299974 diagonalized for initial guess.
 HarFok:  IExCor= 4639 AccDes= 0.00D+00 IRadAn=    299974 IDoV= 1 UseB2=F ITyADJ=14
 ICtDFT=  3500011 ScaDFX=  1.000000  1.000000  1.000000  1.000000
 FoFCou: FMM=F IPFlag=           0 FMFlag=      100000 FMFlg1=           0
         NFxFlg=           0 DoJE=T BraDBF=F KetDBF=T FulRan=T
         wScrn=  0.000000 ICntrl=       500 IOpCl=  0 I1Cent=   200000004 NGrid=           0
         NMat0=    1 NMatS0=      1 NMatT0=    0 NMatD0=    1 NMtDS0=    0 NMtDT0=    0
 Petite list used in FoFCou.
 Requested convergence on RMS density matrix=1.00D-08 within 128 cycles.
 Requested convergence on MAX density matrix=1.00D-06.
 Requested convergence on             energy=1.00D-06.
 No special actions if energy rises.
 Integral accuracy reduced to 1.0D-05 until final iterations.
 Initial convergence to 1.0D-05 achieved.  Increase integral accuracy.
 SCF Done:  E(RwB97XD) =  -607.131247885     A.U. after   17 cycles
            NFock= 17  Conv=0.23D-08     -V/T= 2.0045

 **********************************************************************

            Population analysis using the SCF Density.

 **********************************************************************

 Orbital symmetries:
       Occupied  (A) (A) (A) (A) (A) (A) (A) (A) (A) (A) (A) (A)
                 (A) (A) (A) (A) (A) (A) (A) (A) (A) (A) (A) (A)
                 (A) (A) (A) (A) (A) (A) (A) (A) (A) (A) (A) (A)
                 (A) (A) (A) (A) (A) (A) (A) (A) (A) (A) (A) (A)
       Virtual   (A) (A) (A) (A) (A) (A) (A) (A) (A) (A) (A) (A)
                 (A) (A) (A) (A) (A) (A) (A) (A) (A) (A) (A) (A)
                 (A) (A) (A) (A) (A) (A) (A) (A) (A) (A) (A) (A)
                 (A) (A) (A) (A) (A) (A) (A) (A) (A) (A) (A) (A)
                 (A) (A) (A) (A) (A) (A) (A) (A) (A) (A) (A) (A)
                 (A) (A) (A) (A) (A) (A) (A) (A) (A) (A) (A) (A)
                 (A) (A) (A) (A) (A) (A) (A) (A) (A) (A) (A) (A)
                 (A) (A) (A) (A) (A) (A) (A) (A) (A) (A) (A) (A)
                 (A) (A) (A) (A) (A) (A) (A) (A) (A) (A) (A) (A)
                 (A) (A) (A) (A) (A) (A) (A) (A) (A) (A) (A) (A)
                 (A) (A) (A) (A) (A) (A) (A) (A) (A) (A) (A) (A)
                 (A) (A) (A) (A) (A) (A) (A) (A) (A) (A) (A) (A)
                 (A) (A) (A) (A) (A) (A) (A) (A) (A) (A) (A) (A)
                 (A) (A) (A) (A) (A) (A) (A) (A) (A) (A) (A) (A)
                 (A) (A) (A) (A) (A) (A) (A) (A) (A) (A) (A) (A)
                 (A) (A) (A) (A) (A) (A) (A) (A) (A) (A) (A) (A)
                 (A) (A) (A) (A) (A) (A) (A) (A) (A) (A) (A) (A)
                 (A) (A) (A) (A) (A) (A) (A) (A) (A) (A) (A) (A)
                 (A) (A) (A) (A) (A) (A) (A) (A) (A) (A) (A) (A)
                 (A) (A) (A) (A) (A) (A) (A) (A) (A) (A) (A) (A)
                 (A) (A) (A) (A) (A) (A) (A) (A) (A) (A) (A) (A)
                 (A) (A) (A) (A) (A) (A) (A) (A) (A) (A) (A) (A)
                 (A) (A) (A) (A) (A) (A) (A) (A) (A) (A) (A) (A)
                 (A) (A) (A) (A) (A) (A) (A) (A) (A) (A) (A) (A)
                 (A) (A) (A) (A) (A) (A) (A) (A) (A) (A) (A) (A)
                 (A) (A) (A) (A) (A) (A) (A) (A) (A) (A) (A) (A)
                 (A) (A) (A) (A) (A) (A) (A) (A) (A) (A) (A) (A)
                 (A) (A) (A) (A) (A) (A) (A) (A) (A) (A) (A) (A)
                 (A) (A) (A) (A) (A) (A) (A) (A) (A) (A) (A) (A)
                 (A) (A) (A) (A) (A) (A) (A) (A) (A) (A) (A) (A)
                 (A) (A) (A) (A) (A) (A) (A) (A) (A) (A) (A) (A)
                 (A) (A) (A) (A) (A) (A) (A) (A) (A) (A) (A) (A)
                 (A) (A) (A) (A) (A) (A) (A) (A) (A) (A) (A) (A)
                 (A) (A) (A) (A) (A) (A) (A) (A) (A) (A) (A) (A)
                 (A) (A) (A) (A) (A) (A)
 The electronic state is 1-A.
 Alpha  occ. eigenvalues --  -19.20420 -19.14474 -14.37146 -14.23874 -14.22677
 Alpha  occ. eigenvalues --  -14.22099 -10.32612 -10.25466 -10.19389 -10.16785
 Alpha  occ. eigenvalues --  -10.15851 -10.10045  -1.12371  -1.03768  -0.94110
 Alpha  occ. eigenvalues --   -0.85521  -0.80064  -0.77096  -0.73957  -0.71242
 Alpha  occ. eigenvalues --   -0.62971  -0.60593  -0.56958  -0.54588  -0.51428
 Alpha  occ. eigenvalues --   -0.48818  -0.47944  -0.45824  -0.45282  -0.43394
 Alpha  occ. eigenvalues --   -0.41517  -0.40411  -0.39188  -0.37132  -0.36209
 Alpha  occ. eigenvalues --   -0.35206  -0.33517  -0.32653  -0.31888  -0.31206
 Alpha  occ. eigenvalues --   -0.30554  -0.28512  -0.28344  -0.26186  -0.18714
 Alpha  occ. eigenvalues --   -0.15465  -0.11873  -0.03619
 Alpha virt. eigenvalues --    0.15792   0.18121   0.20603   0.22639   0.23378
 Alpha virt. eigenvalues --    0.25063   0.25751   0.26593   0.27589   0.28307
 Alpha virt. eigenvalues --    0.29997   0.30868   0.32243   0.32719   0.33131
 Alpha virt. eigenvalues --    0.34936   0.35216   0.35489   0.36245   0.37521
 Alpha virt. eigenvalues --    0.37811   0.39303   0.40690   0.42194   0.43903
 Alpha virt. eigenvalues --    0.43992   0.44783   0.45628   0.46397   0.47408
 Alpha virt. eigenvalues --    0.47569   0.48597   0.49458   0.50828   0.51425
 Alpha virt. eigenvalues --    0.52636   0.53321   0.53820   0.54782   0.55454
 Alpha virt. eigenvalues --    0.56131   0.56797   0.57476   0.58083   0.59378
 Alpha virt. eigenvalues --    0.59635   0.60780   0.61408   0.62020   0.62457
 Alpha virt. eigenvalues --    0.62750   0.63574   0.63957   0.64807   0.65244
 Alpha virt. eigenvalues --    0.65701   0.66080   0.66893   0.67640   0.69234
 Alpha virt. eigenvalues --    0.69408   0.69960   0.70901   0.71821   0.72016
 Alpha virt. eigenvalues --    0.72127   0.73350   0.73735   0.74506   0.75406
 Alpha virt. eigenvalues --    0.77054   0.77939   0.78844   0.79382   0.80672
 Alpha virt. eigenvalues --    0.82109   0.82721   0.83646   0.84450   0.85965
 Alpha virt. eigenvalues --    0.86056   0.88797   0.90541   0.91171   0.92618
 Alpha virt. eigenvalues --    0.94782   0.96392   0.97989   0.99164   1.00669
 Alpha virt. eigenvalues --    1.02938   1.04325   1.06055   1.06609   1.08337
 Alpha virt. eigenvalues --    1.09230   1.10081   1.10441   1.12423   1.15305
 Alpha virt. eigenvalues --    1.16880   1.17726   1.18753   1.20865   1.22661
 Alpha virt. eigenvalues --    1.24023   1.26212   1.28249   1.29955   1.31109
 Alpha virt. eigenvalues --    1.33308   1.34341   1.36331   1.38122   1.39822
 Alpha virt. eigenvalues --    1.40872   1.43042   1.46275   1.46906   1.48612
 Alpha virt. eigenvalues --    1.49456   1.50242   1.52352   1.52987   1.54041
 Alpha virt. eigenvalues --    1.55003   1.55785   1.57177   1.58294   1.60287
 Alpha virt. eigenvalues --    1.61360   1.63527   1.64823   1.65216   1.67330
 Alpha virt. eigenvalues --    1.67797   1.70114   1.70940   1.72658   1.73676
 Alpha virt. eigenvalues --    1.73937   1.75720   1.77809   1.78300   1.80192
 Alpha virt. eigenvalues --    1.80366   1.81914   1.83113   1.85109   1.86515
 Alpha virt. eigenvalues --    1.88732   1.89440   1.92425   1.93227   1.95237
 Alpha virt. eigenvalues --    1.95738   1.96882   1.98592   2.00390   2.00907
 Alpha virt. eigenvalues --    2.01257   2.04480   2.05298   2.05947   2.07836
 Alpha virt. eigenvalues --    2.09083   2.09944   2.10636   2.11488   2.13210
 Alpha virt. eigenvalues --    2.15368   2.15909   2.16589   2.18484   2.20616
 Alpha virt. eigenvalues --    2.21262   2.22005   2.23228   2.23355   2.25037
 Alpha virt. eigenvalues --    2.26139   2.27043   2.27359   2.28593   2.29245
 Alpha virt. eigenvalues --    2.31840   2.32768   2.33109   2.36840   2.37679
 Alpha virt. eigenvalues --    2.39895   2.40622   2.43609   2.44231   2.45309
 Alpha virt. eigenvalues --    2.46354   2.48208   2.49075   2.51549   2.52162
 Alpha virt. eigenvalues --    2.54828   2.56373   2.58368   2.58804   2.59876
 Alpha virt. eigenvalues --    2.60751   2.62369   2.64947   2.65519   2.66898
 Alpha virt. eigenvalues --    2.68458   2.68858   2.71190   2.72617   2.73691
 Alpha virt. eigenvalues --    2.75112   2.75778   2.77367   2.79021   2.81094
 Alpha virt. eigenvalues --    2.81679   2.82943   2.83818   2.84395   2.85826
 Alpha virt. eigenvalues --    2.88964   2.89526   2.90244   2.90662   2.91531
 Alpha virt. eigenvalues --    2.93784   2.94807   2.95814   2.96565   2.97404
 Alpha virt. eigenvalues --    2.99530   3.03509   3.05033   3.06610   3.07776
 Alpha virt. eigenvalues --    3.09135   3.10181   3.12176   3.13294   3.14689
 Alpha virt. eigenvalues --    3.17143   3.18981   3.21661   3.23138   3.24880
 Alpha virt. eigenvalues --    3.25627   3.26547   3.28665   3.29002   3.30299
 Alpha virt. eigenvalues --    3.31252   3.35871   3.38299   3.39538   3.40434
 Alpha virt. eigenvalues --    3.42511   3.43014   3.44750   3.45220   3.46275
 Alpha virt. eigenvalues --    3.46470   3.48862   3.49886   3.50620   3.51863
 Alpha virt. eigenvalues --    3.52700   3.53530   3.53720   3.56767   3.58345
 Alpha virt. eigenvalues --    3.59853   3.62118   3.63958   3.64814   3.65926
 Alpha virt. eigenvalues --    3.68032   3.69246   3.69512   3.70951   3.73898
 Alpha virt. eigenvalues --    3.75390   3.76393   3.77730   3.81341   3.82018
 Alpha virt. eigenvalues --    3.83557   3.85771   3.86875   3.88552   3.92756
 Alpha virt. eigenvalues --    3.93622   3.95202   3.99564   4.04082   4.04666
 Alpha virt. eigenvalues --    4.05809   4.07962   4.10788   4.12632   4.13881
 Alpha virt. eigenvalues --    4.14808   4.17794   4.20872   4.21310   4.22551
 Alpha virt. eigenvalues --    4.26108   4.31267   4.32568   4.36676   4.38118
 Alpha virt. eigenvalues --    4.40545   4.43831   4.48658   4.50289   4.53667
 Alpha virt. eigenvalues --    4.54051   4.56880   4.58779   4.59390   4.61798
 Alpha virt. eigenvalues --    4.64132   4.66099   4.70357   4.74353   4.74894
 Alpha virt. eigenvalues --    4.77444   4.81569   4.84632   4.88399   4.90112
 Alpha virt. eigenvalues --    4.91562   4.93464   4.96471   4.98531   4.99675
 Alpha virt. eigenvalues --    5.01209   5.02229   5.07378   5.09110   5.09887
 Alpha virt. eigenvalues --    5.11771   5.12649   5.16239   5.19201   5.20993
 Alpha virt. eigenvalues --    5.24979   5.26058   5.26130   5.29747   5.30954
 Alpha virt. eigenvalues --    5.33985   5.34643   5.35828   5.38062   5.38596
 Alpha virt. eigenvalues --    5.40531   5.42099   5.46403   5.46973   5.49282
 Alpha virt. eigenvalues --    5.49683   5.52979   5.57375   5.59648   5.60746
 Alpha virt. eigenvalues --    5.63850   5.68163   5.68546   5.72296   5.73087
 Alpha virt. eigenvalues --    5.75304   5.76565   5.80463   5.85686   5.87759
 Alpha virt. eigenvalues --    5.91606   5.94768   5.98739   6.01196   6.10710
 Alpha virt. eigenvalues --    6.16563   6.20540   6.25860   6.35952   6.36443
 Alpha virt. eigenvalues --    6.53631   6.58951   6.63521   6.67849   6.89957
 Alpha virt. eigenvalues --    6.90134   6.97030   7.00756   7.19117   7.30568
 Alpha virt. eigenvalues --    7.34110   7.46543  22.62010  22.70983  22.73366
 Alpha virt. eigenvalues --   22.76969  22.80287  23.51682  32.20077  32.22212
 Alpha virt. eigenvalues --   32.31017  32.75010  44.02112  44.08743
          Condensed to atoms (all electrons):
               1          2          3          4          5          6
     1  N    6.771133   0.368696   0.372487   0.056222   0.142795  -0.044776
     2  H    0.368696   0.441828  -0.028763  -0.001654  -0.033602   0.005962
     3  H    0.372487  -0.028763   0.442029  -0.000773  -0.019336  -0.010993
     4  H    0.056222  -0.001654  -0.000773   0.358836  -0.017517   0.001364
     5  C    0.142795  -0.033602  -0.019336  -0.017517   5.404382   0.404172
     6  H   -0.044776   0.005962  -0.010993   0.001364   0.404172   0.578483
     7  C   -0.050583  -0.005865  -0.002932   0.003810   0.223916  -0.035685
     8  H    0.008508   0.000339  -0.000452  -0.000235  -0.044711  -0.003116
     9  H   -0.010417   0.004955  -0.000164  -0.000099  -0.025134   0.008557
    10  C    0.010225  -0.000205   0.001699  -0.000247  -0.042078  -0.003589
    11  H    0.017657   0.003261  -0.000412   0.000005  -0.023971  -0.000815
    12  H   -0.001751   0.000355   0.000412  -0.000046   0.006073   0.003024
    13  C    0.001880  -0.000505   0.000175   0.000005  -0.014320   0.000737
    14  H   -0.000106   0.000051  -0.000006   0.000000   0.001669  -0.000016
    15  H    0.000066   0.000002   0.000048  -0.000001   0.002245  -0.000248
    16  N    0.000116   0.000006   0.000008  -0.000000  -0.000973  -0.000071
    17  H   -0.000184   0.000110   0.000004  -0.000000   0.001139  -0.000057
    18  C    0.000017  -0.000009   0.000000  -0.000000  -0.000164   0.000004
    19  N   -0.000000   0.000002   0.000000   0.000000   0.000024  -0.000001
    20  H   -0.000000   0.000000  -0.000000   0.000000   0.000005   0.000000
    21  H   -0.000001   0.000005   0.000000  -0.000000   0.000028  -0.000001
    22  N   -0.000000   0.000000   0.000000  -0.000000  -0.000002  -0.000000
    23  H   -0.000000  -0.000000   0.000000   0.000000   0.000001  -0.000000
    24  H   -0.000000   0.000000   0.000000  -0.000000   0.000007  -0.000000
    25  C   -0.006165  -0.000619   0.000443  -0.034415   0.233588  -0.014133
    26  O   -0.045386   0.000868   0.000307   0.288905  -0.123783   0.001697
    27  O    0.005319  -0.000022  -0.000214   0.005001  -0.131374   0.002427
               7          8          9         10         11         12
     1  N   -0.050583   0.008508  -0.010417   0.010225   0.017657  -0.001751
     2  H   -0.005865   0.000339   0.004955  -0.000205   0.003261   0.000355
     3  H   -0.002932  -0.000452  -0.000164   0.001699  -0.000412   0.000412
     4  H    0.003810  -0.000235  -0.000099  -0.000247   0.000005  -0.000046
     5  C    0.223916  -0.044711  -0.025134  -0.042078  -0.023971   0.006073
     6  H   -0.035685  -0.003116   0.008557  -0.003589  -0.000815   0.003024
     7  C    5.321974   0.396019   0.389410   0.141613  -0.057422  -0.019921
     8  H    0.396019   0.532284  -0.016328  -0.017134   0.007845  -0.006900
     9  H    0.389410  -0.016328   0.599716  -0.058119  -0.005952   0.008342
    10  C    0.141613  -0.017134  -0.058119   5.297408   0.411786   0.355210
    11  H   -0.057422   0.007845  -0.005952   0.411786   0.667039  -0.042365
    12  H   -0.019921  -0.006900   0.008342   0.355210  -0.042365   0.625031
    13  C   -0.059465   0.005182   0.006456   0.152492  -0.032696  -0.025724
    14  H   -0.027553   0.003459  -0.001378   0.043617   0.012370  -0.013779
    15  H    0.051043  -0.002762   0.004618  -0.098304  -0.014749   0.018712
    16  N    0.011258   0.000123   0.000224  -0.096491  -0.005495   0.018664
    17  H   -0.002394  -0.000148  -0.000385   0.036892   0.019509  -0.000289
    18  C   -0.003557  -0.000089   0.000195  -0.005975  -0.001855  -0.000114
    19  N    0.001654  -0.000004  -0.000145   0.006138  -0.000274   0.000199
    20  H   -0.000136   0.000015  -0.000042   0.001335   0.000033  -0.000136
    21  H    0.000071  -0.000015  -0.000058   0.005411   0.001018   0.000095
    22  N   -0.000116   0.000000  -0.000001  -0.001180  -0.000024  -0.000125
    23  H    0.000076  -0.000002   0.000001  -0.000324  -0.000067   0.000383
    24  H   -0.000001  -0.000003  -0.000001   0.002401   0.000323   0.000223
    25  C   -0.018217  -0.002275  -0.002219  -0.004108  -0.000425   0.000687
    26  O   -0.001464   0.000947   0.002267  -0.000661  -0.000010   0.000012
    27  O    0.011575   0.012349   0.000309  -0.001350  -0.000079   0.000025
              13         14         15         16         17         18
     1  N    0.001880  -0.000106   0.000066   0.000116  -0.000184   0.000017
     2  H   -0.000505   0.000051   0.000002   0.000006   0.000110  -0.000009
     3  H    0.000175  -0.000006   0.000048   0.000008   0.000004   0.000000
     4  H    0.000005   0.000000  -0.000001  -0.000000  -0.000000  -0.000000
     5  C   -0.014320   0.001669   0.002245  -0.000973   0.001139  -0.000164
     6  H    0.000737  -0.000016  -0.000248  -0.000071  -0.000057   0.000004
     7  C   -0.059465  -0.027553   0.051043   0.011258  -0.002394  -0.003557
     8  H    0.005182   0.003459  -0.002762   0.000123  -0.000148  -0.000089
     9  H    0.006456  -0.001378   0.004618   0.000224  -0.000385   0.000195
    10  C    0.152492   0.043617  -0.098304  -0.096491   0.036892  -0.005975
    11  H   -0.032696   0.012370  -0.014749  -0.005495   0.019509  -0.001855
    12  H   -0.025724  -0.013779   0.018712   0.018664  -0.000289  -0.000114
    13  C    5.200483   0.282393   0.343894   0.439146  -0.165591  -0.070750
    14  H    0.282393   0.677412  -0.068976  -0.056090   0.043742   0.036463
    15  H    0.343894  -0.068976   0.869819  -0.103657  -0.005445  -0.036562
    16  N    0.439146  -0.056090  -0.103657   6.827463   0.147047   0.506472
    17  H   -0.165591   0.043742  -0.005445   0.147047   1.003232  -0.270113
    18  C   -0.070750   0.036463  -0.036562   0.506472  -0.270113   5.698910
    19  N    0.016648  -0.002757   0.041033  -0.154925  -0.017932   0.353751
    20  H    0.006754   0.000288  -0.002860   0.008258  -0.002050  -0.077268
    21  H   -0.016444   0.008507   0.007406  -0.044753   0.126655  -0.265041
    22  N    0.006403   0.003159  -0.000295  -0.179685   0.025562   0.403693
    23  H    0.000603  -0.000450   0.000569   0.010540   0.002356  -0.071685
    24  H   -0.007969   0.002732   0.001205  -0.046410   0.102319  -0.243024
    25  C   -0.000316  -0.000137   0.000420  -0.000003   0.000008  -0.000004
    26  O    0.000004  -0.000001  -0.000001  -0.000000  -0.000000   0.000000
    27  O    0.000197  -0.000030  -0.000004  -0.000000   0.000000   0.000000
              19         20         21         22         23         24
     1  N   -0.000000  -0.000000  -0.000001  -0.000000  -0.000000  -0.000000
     2  H    0.000002   0.000000   0.000005   0.000000  -0.000000   0.000000
     3  H    0.000000  -0.000000   0.000000   0.000000   0.000000   0.000000
     4  H    0.000000   0.000000  -0.000000  -0.000000   0.000000  -0.000000
     5  C    0.000024   0.000005   0.000028  -0.000002   0.000001   0.000007
     6  H   -0.000001   0.000000  -0.000001  -0.000000  -0.000000  -0.000000
     7  C    0.001654  -0.000136   0.000071  -0.000116   0.000076  -0.000001
     8  H   -0.000004   0.000015  -0.000015   0.000000  -0.000002  -0.000003
     9  H   -0.000145  -0.000042  -0.000058  -0.000001   0.000001  -0.000001
    10  C    0.006138   0.001335   0.005411  -0.001180  -0.000324   0.002401
    11  H   -0.000274   0.000033   0.001018  -0.000024  -0.000067   0.000323
    12  H    0.000199  -0.000136   0.000095  -0.000125   0.000383   0.000223
    13  C    0.016648   0.006754  -0.016444   0.006403   0.000603  -0.007969
    14  H   -0.002757   0.000288   0.008507   0.003159  -0.000450   0.002732
    15  H    0.041033  -0.002860   0.007406  -0.000295   0.000569   0.001205
    16  N   -0.154925   0.008258  -0.044753  -0.179685   0.010540  -0.046410
    17  H   -0.017932  -0.002050   0.126655   0.025562   0.002356   0.102319
    18  C    0.353751  -0.077268  -0.265041   0.403693  -0.071685  -0.243024
    19  N    6.738066   0.392559   0.226134  -0.092407   0.012431  -0.026456
    20  H    0.392559   0.564742  -0.066946   0.010474  -0.001469  -0.002617
    21  H    0.226134  -0.066946   0.930181  -0.009521   0.000284   0.093554
    22  N   -0.092407   0.010474  -0.009521   6.698288   0.366394   0.278638
    23  H    0.012431  -0.001469   0.000284   0.366394   0.546147  -0.032518
    24  H   -0.026456  -0.002617   0.093554   0.278638  -0.032518   0.827566
    25  C    0.000000  -0.000000   0.000000  -0.000000   0.000000   0.000000
    26  O   -0.000000  -0.000000   0.000000  -0.000000  -0.000000   0.000000
    27  O    0.000000  -0.000000   0.000000   0.000000   0.000000   0.000000
              25         26         27
     1  N   -0.006165  -0.045386   0.005319
     2  H   -0.000619   0.000868  -0.000022
     3  H    0.000443   0.000307  -0.000214
     4  H   -0.034415   0.288905   0.005001
     5  C    0.233588  -0.123783  -0.131374
     6  H   -0.014133   0.001697   0.002427
     7  C   -0.018217  -0.001464   0.011575
     8  H   -0.002275   0.000947   0.012349
     9  H   -0.002219   0.002267   0.000309
    10  C   -0.004108  -0.000661  -0.001350
    11  H   -0.000425  -0.000010  -0.000079
    12  H    0.000687   0.000012   0.000025
    13  C   -0.000316   0.000004   0.000197
    14  H   -0.000137  -0.000001  -0.000030
    15  H    0.000420  -0.000001  -0.000004
    16  N   -0.000003  -0.000000  -0.000000
    17  H    0.000008  -0.000000   0.000000
    18  C   -0.000004   0.000000   0.000000
    19  N    0.000000  -0.000000   0.000000
    20  H   -0.000000  -0.000000  -0.000000
    21  H    0.000000   0.000000   0.000000
    22  N   -0.000000  -0.000000   0.000000
    23  H    0.000000  -0.000000   0.000000
    24  H    0.000000   0.000000   0.000000
    25  C    4.436002   0.392303   0.700649
    26  O    0.392303   7.953863  -0.085405
    27  O    0.700649  -0.085405   7.840550
 Mulliken charges:
               1
     1  N   -0.595751
     2  H    0.244804
     3  H    0.246433
     4  H    0.340839
     5  C    0.056919
     6  H    0.107073
     7  C   -0.267108
     8  H    0.127103
     9  H    0.095394
    10  C   -0.136462
    11  H    0.045770
    12  H    0.073702
    13  C   -0.069672
    14  H    0.055416
    15  H   -0.007215
    16  N   -0.280773
    17  H   -0.043984
    18  C    0.046704
    19  N   -0.493738
    20  H    0.169061
    21  H    0.003430
    22  N   -0.509256
    23  H    0.166729
    24  H    0.050031
    25  C    0.318937
    26  O   -0.384463
    27  O   -0.359923
 Sum of Mulliken charges =  -1.00000
 Mulliken charges with hydrogens summed into heavy atoms:
               1
     1  N   -0.104514
     5  C    0.163992
     7  C   -0.044611
    10  C   -0.016990
    13  C   -0.021472
    16  N   -0.324757
    18  C    0.046704
    19  N   -0.321247
    22  N   -0.292495
    25  C    0.318937
    26  O   -0.043624
    27  O   -0.359923
 Electronic spatial extent (au):  <R**2>=           4290.6011
 Charge=             -1.0000 electrons
 Dipole moment (field-independent basis, Debye):
    X=            -14.1027    Y=              5.7846    Z=              0.8360  Tot=             15.2658
 Quadrupole moment (field-independent basis, Debye-Ang):
   XX=           -197.7553   YY=            -83.6510   ZZ=            -78.4241
   XY=             -2.9585   XZ=              0.4094   YZ=             -1.4814
 Traceless Quadrupole moment (field-independent basis, Debye-Ang):
   XX=            -77.8119   YY=             36.2925   ZZ=             41.5194
   XY=             -2.9585   XZ=              0.4094   YZ=             -1.4814
 Octapole moment (field-independent basis, Debye-Ang**2):
  XXX=           -355.6955  YYY=             21.3888  ZZZ=             -3.1271  XYY=            -20.4044
  XXY=             93.5009  XXZ=             -9.1115  XZZ=            -33.2829  YZZ=              4.7126
  YYZ=              3.5687  XYZ=              4.7218
 Hexadecapole moment (field-independent basis, Debye-Ang**3):
 XXXX=          -8077.9119 YYYY=           -422.0316 ZZZZ=           -266.6493 XXXY=             49.5598
 XXXZ=            -27.7201 YYYX=            -24.5448 YYYZ=             -9.8187 ZZZX=            -33.9666
 ZZZY=             -1.0101 XXYY=          -1044.9352 XXZZ=           -946.5125 YYZZ=           -114.4352
 XXYZ=            -10.2242 YYXZ=             -7.2061 ZZXY=              2.2369
 N-N= 7.113316881580D+02 E-N=-2.854457093152D+03  KE= 6.044106001666D+02
 Unable to Open any file for archive entry.
 1\1\GINC-WATER\SP\RwB97XD\def2TZVP\C6H15N4O2(1-)\DAYALYZ\10-Jun-2025\0
 \\# wB97xD/Def2TZVP SCF(Tight) Int(Grid=299974)\\Displacement_-0.1\\-1
 ,1\N,0,-2.449391,1.662106,0.312579\H,0,-1.892601,1.661727,1.158668\H,0
 ,-2.080546,2.396181,-0.273303\H,0,-4.177396,1.141286,0.662011\C,0,-2.3
 48291,0.354291,-0.351331\H,0,-2.34121,0.525036,-1.432399\C,0,-1.094454
 ,-0.433998,0.018947\H,0,-1.158799,-1.420651,-0.442292\H,0,-1.094388,-0
 .600813,1.103594\C,0,0.189472,0.269027,-0.401511\H,0,0.226249,1.274775
 ,0.033698\H,0,0.202187,0.403801,-1.488111\C,0,1.454987,-0.475381,0.010
 983\H,0,1.500154,-1.447664,-0.488322\H,0,1.388351,-0.690428,1.097108\N
 ,0,2.637813,0.252447,-0.370362\H,0,2.663477,1.14038,0.183821\C,0,3.912
 1,-0.45352,-0.160239\N,0,4.229864,-0.562712,1.249782\H,0,3.541317,-1.1
 13161,1.750952\H,0,4.107688,0.361081,1.749439\N,0,4.955203,0.393604,-0
 .715669\H,0,4.673541,0.560368,-1.674412\H,0,4.934828,1.289049,-0.18142
 1\C,0,-3.634014,-0.44553,-0.088747\O,0,-4.586522,0.257947,0.524834\O,0
 ,-3.789113,-1.585375,-0.425703\\Version=ES64L-G16RevC.01\State=1-A\HF=
 -607.1312479\RMSD=2.257e-09\Dipole=-5.5480117,2.2757124,0.3363595\Quad
 rupole=-57.8522223,26.9917949,30.8604274,-2.1830275,0.2785781,-1.11644
 24\PG=C01 [X(C6H15N4O2)]\\@
 The archive entry for this job was punched.


 THERE ARE PEOPLE SO ADDICTED TO EXAGERATING THEY
 CAN'T TELL THE TRUTH WITHOUT LYING. -- FORTUNE COOKIE
 Job cpu time:       0 days  0 hours 47 minutes 50.5 seconds.
 Elapsed time:       0 days  0 hours 47 minutes 56.7 seconds.
 File lengths (MBytes):  RWF=    118 Int=      0 D2E=      0 Chk=     13 Scr=      1
 Normal termination of Gaussian 16 at Tue Jun 10 13:06:54 2025.
