 Entering Gaussian System, Link 0=g16
 Initial command:
 /opt/gaussian/g16/l1.exe "/scratch/Gau-148120.inp" -scrdir="/scratch/"
 Entering Link 1 = /opt/gaussian/g16/l1.exe PID=    148121.
  
 Copyright (c) 1988-2019, Gaussian, Inc.  All Rights Reserved.
  
 This is part of the Gaussian(R) 16 program.  It is based on
 the Gaussian(R) 09 system (copyright 2009, Gaussian, Inc.),
 the Gaussian(R) 03 system (copyright 2003, Gaussian, Inc.),
 the Gaussian(R) 98 system (copyright 1998, Gaussian, Inc.),
 the Gaussian(R) 94 system (copyright 1995, Gaussian, Inc.),
 the Gaussian 92(TM) system (copyright 1992, Gaussian, Inc.),
 the Gaussian 90(TM) system (copyright 1990, Gaussian, Inc.),
 the Gaussian 88(TM) system (copyright 1988, Gaussian, Inc.),
 the Gaussian 86(TM) system (copyright 1986, Carnegie Mellon
 University), and the Gaussian 82(TM) system (copyright 1983,
 Carnegie Mellon University). Gaussian is a federally registered
 trademark of Gaussian, Inc.
  
 This software contains proprietary and confidential information,
 including trade secrets, belonging to Gaussian, Inc.
  
 This software is provided under written license and may be
 used, copied, transmitted, or stored only in accord with that
 written license.
  
 The following legend is applicable only to US Government
 contracts under FAR:
  
                    RESTRICTED RIGHTS LEGEND
  
 Use, reproduction and disclosure by the US Government is
 subject to restrictions as set forth in subparagraphs (a)
 and (c) of the Commercial Computer Software - Restricted
 Rights clause in FAR 52.227-19.
  
 Gaussian, Inc.
 340 Quinnipiac St., Bldg. 40, Wallingford CT 06492
  
  
 ---------------------------------------------------------------
 Warning -- This program may not be used in any manner that
 competes with the business of Gaussian, Inc. or will provide
 assistance to any competitor of Gaussian, Inc.  The licensee
 of this program is prohibited from giving any competitor of
 Gaussian, Inc. access to this program.  By using this program,
 the user acknowledges that Gaussian, Inc. is engaged in the
 business of creating and licensing software in the field of
 computational chemistry and represents and warrants to the
 licensee that it is not a competitor of Gaussian, Inc. and that
 it will not use this program in any manner prohibited above.
 ---------------------------------------------------------------
  

 Cite this work as:
 Gaussian 16, Revision C.01,
 M. J. Frisch, G. W. Trucks, H. B. Schlegel, G. E. Scuseria, 
 M. A. Robb, J. R. Cheeseman, G. Scalmani, V. Barone, 
 G. A. Petersson, H. Nakatsuji, X. Li, M. Caricato, A. V. Marenich, 
 J. Bloino, B. G. Janesko, R. Gomperts, B. Mennucci, H. P. Hratchian, 
 J. V. Ortiz, A. F. Izmaylov, J. L. Sonnenberg, D. Williams-Young, 
 F. Ding, F. Lipparini, F. Egidi, J. Goings, B. Peng, A. Petrone, 
 T. Henderson, D. Ranasinghe, V. G. Zakrzewski, J. Gao, N. Rega, 
 G. Zheng, W. Liang, M. Hada, M. Ehara, K. Toyota, R. Fukuda, 
 J. Hasegawa, M. Ishida, T. Nakajima, Y. Honda, O. Kitao, H. Nakai, 
 T. Vreven, K. Throssell, J. A. Montgomery, Jr., J. E. Peralta, 
 F. Ogliaro, M. J. Bearpark, J. J. Heyd, E. N. Brothers, K. N. Kudin, 
 V. N. Staroverov, T. A. Keith, R. Kobayashi, J. Normand, 
 K. Raghavachari, A. P. Rendell, J. C. Burant, S. S. Iyengar, 
 J. Tomasi, M. Cossi, J. M. Millam, M. Klene, C. Adamo, R. Cammi, 
 J. W. Ochterski, R. L. Martin, K. Morokuma, O. Farkas, 
 J. B. Foresman, and D. J. Fox, Gaussian, Inc., Wallingford CT, 2019.
 
 ******************************************
 Gaussian 16:  ES64L-G16RevC.01  3-Jul-2019
                11-Jun-2025 
 ******************************************
 ---------------------------------------------
 # wB97xD/Def2TZVP SCF(Tight) Int(Grid=299974)
 ---------------------------------------------
 1/38=1,172=1/1;
 2/12=2,17=6,18=5,40=1/2;
 3/5=44,7=101,11=2,25=1,30=1,74=-58,75=299974/1,2,3;
 4//1;
 5/5=2,32=2,38=5/2;
 6/7=2,8=2,9=2,10=2,28=1/1;
 99/5=1,9=1/99;
 -----------------
 Displacement_0.05
 -----------------
 Symbolic Z-matrix:
 Charge = -1 Multiplicity = 1
 N                    -2.44939   1.66211   0.31258 
 H                    -1.8926    1.66173   1.15867 
 H                    -2.08055   2.39618  -0.2733 
 H                    -4.1774    1.14129   0.66201 
 C                    -2.34829   0.35429  -0.35133 
 H                    -2.34121   0.52504  -1.4324 
 C                    -1.09445  -0.434     0.01895 
 H                    -1.1588   -1.42065  -0.44229 
 H                    -1.09439  -0.60081   1.10359 
 C                     0.18947   0.26903  -0.40151 
 H                     0.22625   1.27477   0.0337 
 H                     0.20219   0.4038   -1.48811 
 C                     1.45499  -0.47538   0.01098 
 H                     1.50015  -1.44916  -0.48682 
 H                     1.38685  -0.69193   1.09711 
 N                     2.63781   0.25245  -0.37036 
 H                     2.66348   1.14038   0.18532 
 C                     3.9106   -0.45352  -0.15874 
 N                     4.22836  -0.56121   1.25728 
 H                     3.54732  -1.16716   1.69545 
 H                     4.14519   0.39108   1.68344 
 N                     4.9537    0.3876   -0.71267 
 H                     4.68554   0.62787  -1.66091 
 H                     4.93933   1.32655  -0.24142 
 C                    -3.63401  -0.44553  -0.08875 
 O                    -4.58652   0.25795   0.52483 
 O                    -3.78911  -1.58538  -0.4257 
 
                          Input orientation:                          
 ---------------------------------------------------------------------
 Center     Atomic      Atomic             Coordinates (Angstroms)
 Number     Number       Type             X           Y           Z
 ---------------------------------------------------------------------
      1          7           0       -2.449391    1.662106    0.312579
      2          1           0       -1.892601    1.661727    1.158668
      3          1           0       -2.080546    2.396181   -0.273303
      4          1           0       -4.177396    1.141286    0.662011
      5          6           0       -2.348291    0.354291   -0.351331
      6          1           0       -2.341210    0.525036   -1.432399
      7          6           0       -1.094454   -0.433998    0.018947
      8          1           0       -1.158799   -1.420651   -0.442292
      9          1           0       -1.094388   -0.600813    1.103594
     10          6           0        0.189472    0.269027   -0.401511
     11          1           0        0.226249    1.274775    0.033698
     12          1           0        0.202187    0.403801   -1.488111
     13          6           0        1.454987   -0.475381    0.010983
     14          1           0        1.500154   -1.449164   -0.486822
     15          1           0        1.386851   -0.691928    1.097108
     16          7           0        2.637813    0.252447   -0.370362
     17          1           0        2.663477    1.140380    0.185321
     18          6           0        3.910600   -0.453520   -0.158739
     19          7           0        4.228364   -0.561212    1.257282
     20          1           0        3.547317   -1.167161    1.695452
     21          1           0        4.145188    0.391081    1.683439
     22          7           0        4.953703    0.387604   -0.712669
     23          1           0        4.685541    0.627868   -1.660912
     24          1           0        4.939328    1.326549   -0.241421
     25          6           0       -3.634014   -0.445530   -0.088747
     26          8           0       -4.586522    0.257947    0.524834
     27          8           0       -3.789113   -1.585375   -0.425703
 ---------------------------------------------------------------------
                    Distance matrix (angstroms):
                    1          2          3          4          5
     1  N    0.000000
     2  H    1.012858   0.000000
     3  H    1.009044   1.620274   0.000000
     4  H    1.838303   2.395374   2.616554   0.000000
     5  C    1.470162   2.048692   2.060847   2.234244   0.000000
     6  H    2.085565   2.864777   2.216446   2.852700   1.094492
     7  C    2.513111   2.515565   3.011262   3.521304   1.526634
     8  H    3.426200   3.550013   3.930188   4.110345   2.138594
     9  H    2.753641   2.399847   3.442430   3.568591   2.145065
    10  C    3.068255   2.951068   3.113552   4.578368   2.539691
    11  H    2.717876   2.429982   2.583235   4.450246   2.761122
    12  H    3.443353   3.602215   3.264385   4.934334   2.792787
    13  C    4.461387   4.134097   4.563626   5.895862   3.909546
    14  H    5.090967   4.888360   5.258677   6.345457   4.252216
    15  H    4.568776   4.037114   4.841207   5.874592   4.140512
    16  N    5.322893   4.984842   5.183428   6.950029   4.987180
    17  H    5.140993   4.687969   4.928806   6.857461   5.101348
    18  C    6.719189   6.315613   6.635341   8.284486   6.313744
    19  N    7.101269   6.512864   7.133807   8.597072   6.832143
    20  H    6.773300   6.154953   6.945952   8.128230   6.423576
    21  H    6.854432   6.192320   6.827081   8.418523   6.804918
    22  N    7.581642   7.210906   7.328580   9.264705   7.311005
    23  H    7.474729   7.231241   7.129679   9.176667   7.159933
    24  H    7.417054   6.981966   7.100969   9.163251   7.353010
    25  C    2.450821   3.004845   3.243863   1.837631   1.536798
    26  O    2.565939   3.103152   3.389540   0.983102   2.405541
    27  O    3.589714   4.080522   4.335345   2.961176   2.417396
                    6          7          8          9         10
     6  H    0.000000
     7  C    2.140222   0.000000
     8  H    2.482762   1.091039   0.000000
     9  H    3.041934   1.097400   1.751013   0.000000
    10  C    2.744562   1.522989   2.162061   2.161078   0.000000
    11  H    3.050147   2.159717   3.067612   2.531124   1.096489
    12  H    2.546894   2.157408   2.504924   3.067131   1.095000
    13  C    4.182738   2.549789   2.816180   2.776481   1.525065
    14  H    4.421273   2.831670   2.659479   3.159236   2.162717
    15  H    4.666674   2.717689   3.062862   2.482920   2.145463
    16  N    5.098323   3.814785   4.149541   4.102429   2.448595
    17  H    5.295522   4.077793   4.643552   4.242231   2.687811
    18  C    6.454836   5.008245   5.168612   5.163825   3.798395
    19  N    7.181478   5.466448   5.713905   5.325118   4.444495
    20  H    6.879079   4.989412   5.175107   4.713435   4.211296
    21  H    7.197204   5.559239   5.994446   5.364068   4.473209
    22  N    7.331620   6.147397   6.380092   6.391806   4.775854
    23  H    7.031218   6.112105   6.311717   6.523782   4.682894
    24  H    7.420720   6.290774   6.691383   6.475301   4.868790
    25  C    2.102080   2.541869   2.683756   2.809891   3.902238
    26  O    2.990572   3.595726   3.937297   3.642449   4.865014
    27  O    2.750217   2.963877   2.635519   3.251101   4.389593
                   11         12         13         14         15
    11  H    0.000000
    12  H    1.753590   0.000000
    13  C    2.138541   2.142371   0.000000
    14  H    3.051822   2.474020   1.094579   0.000000
    15  H    2.519079   3.047525   1.109596   1.759283   0.000000
    16  N    2.650294   2.684128   1.440220   2.050198   2.147142
    17  H    2.445635   3.066084   2.025222   2.917333   2.412153
    18  C    4.074123   4.031694   2.461568   2.628535   2.829010
    19  N    4.570003   4.967749   3.041751   3.357601   2.849024
    20  H    4.444544   4.877796   2.773777   3.005449   2.291610
    21  H    4.342884   5.060252   3.284060   3.884937   3.020781
    22  N    4.867541   4.814403   3.675518   3.918128   4.142839
    23  H    4.814091   4.492274   3.801167   3.979854   4.497765
    24  H    4.721386   4.984597   3.930813   4.426367   4.299535
    25  C    4.228010   4.170854   5.090066   5.246468   5.164886
    26  O    4.943472   5.196629   6.107507   6.401976   6.075438
    27  O    4.951226   4.584322   5.378045   5.291374   5.468803
                   16         17         18         19         20
    16  N    0.000000
    17  H    1.047792   0.000000
    18  C    1.470769   2.052854   0.000000
    19  N    2.416841   2.548213   1.455227   0.000000
    20  H    2.666472   2.895931   2.019723   1.011431   0.000000
    21  H    2.551372   2.236353   2.040099   1.046609   1.669045
    22  N    2.344949   2.572585   1.449963   2.303709   3.192846
    23  H    2.449418   2.785675   2.006603   3.184145   3.972765
    24  H    2.543087   2.322986   2.057611   2.513011   3.450762
    25  C    6.316826   6.499894   7.544943   7.977604   7.434758
    26  O    7.279589   7.311391   8.554212   8.883114   8.340301
    27  O    6.684761   7.031288   7.787037   8.255985   7.648360
                   21         22         23         24         25
    21  H    0.000000
    22  N    2.528842   0.000000
    23  H    3.395988   1.014299   0.000000
    24  H    2.282727   1.050666   1.602348   0.000000
    25  C    8.022253   8.650565   8.534570   8.755899   0.000000
    26  O    8.809248   9.621025   9.533388   9.616178   1.333654
    27  O    8.444406   8.967264   8.845561   9.203203   1.198683
                   26         27
    26  O    0.000000
    27  O    2.221985   0.000000
 Stoichiometry    C6H15N4O2(1-)
 Framework group  C1[X(C6H15N4O2)]
 Deg. of freedom    75
 Full point group                 C1      NOp   1
 Largest Abelian subgroup         C1      NOp   1
 Largest concise Abelian subgroup C1      NOp   1
                         Standard orientation:                         
 ---------------------------------------------------------------------
 Center     Atomic      Atomic             Coordinates (Angstroms)
 Number     Number       Type             X           Y           Z
 ---------------------------------------------------------------------
      1          7           0       -2.449349    1.661619    0.315686
      2          1           0       -1.892643    1.659625    1.161828
      3          1           0       -2.080370    2.396733   -0.268808
      4          1           0       -4.177443    1.140336    0.663989
      5          6           0       -2.348320    0.355017   -0.350620
      6          1           0       -2.341114    0.527751   -1.431371
      7          6           0       -1.094601   -0.434082    0.018330
      8          1           0       -1.159003   -1.419878   -0.444731
      9          1           0       -1.094659   -0.602893    1.102668
     10          6           0        0.189439    0.269582   -0.400707
     11          1           0        0.226278    1.274524    0.036356
     12          1           0        0.202276    0.406355   -1.487056
     13          6           0        1.454837   -0.475715    0.010540
     14          1           0        1.499952   -1.448585   -0.489052
     15          1           0        1.386571   -0.694254    1.096258
     16          7           0        2.637776    0.252691   -0.369348
     17          1           0        2.663477    1.139597    0.187971
     18          6           0        3.910469   -0.453797   -0.158900
     19          7           0        4.228082   -0.564128    1.256952
     20          1           0        3.546929   -1.170812    1.693939
     21          1           0        4.144963    0.387387    1.684853
     22          7           0        4.953713    0.388237   -0.711178
     23          1           0        4.685670    0.630274   -1.659003
     24          1           0        4.939389    1.326314   -0.238204
     25          6           0       -3.634151   -0.445152   -0.089635
     26          8           0       -4.586647    0.257294    0.525146
     27          8           0       -3.789335   -1.584359   -0.428704
 ---------------------------------------------------------------------
 Rotational constants (GHZ):           2.7668990           0.2562266           0.2486475
 Standard basis: def2TZVP (5D, 7F)
 There are   522 symmetry adapted cartesian basis functions of A   symmetry.
 There are   462 symmetry adapted basis functions of A   symmetry.
   462 basis functions,   732 primitive gaussians,   522 cartesian basis functions
    48 alpha electrons       48 beta electrons
       nuclear repulsion energy       711.3513875495 Hartrees.
 NAtoms=   27 NActive=   27 NUniq=   27 SFac= 1.00D+00 NAtFMM=   60 NAOKFM=F Big=F
 Integral buffers will be    131072 words long.
 Raffenetti 2 integral format.
 Two-electron integral symmetry is turned on.
 Nuclear repulsion after empirical dispersion term =      711.3338811219 Hartrees.
 One-electron integrals computed using PRISM.
   1 Symmetry operations used in ECPInt.
 ECPInt:  NShTT=   18528 NPrTT=   54924 LenC2=   16268 LenP2D=   36013.
 LDataN:  DoStor=T MaxTD1= 6 Len=  172
 NBasis=   462 RedAO= T EigKep=  7.71D-05  NBF=   462
 NBsUse=   462 1.00D-06 EigRej= -1.00D+00 NBFU=   462
 ExpMin= 9.52D-02 ExpMax= 2.70D+04 ExpMxC= 9.22D+02 IAcc=4 IRadAn=    299974 AccDes= 0.00D+00
 Harris functional with IExCor= 4639 and IRadAn=  299974 diagonalized for initial guess.
 HarFok:  IExCor= 4639 AccDes= 0.00D+00 IRadAn=    299974 IDoV= 1 UseB2=F ITyADJ=14
 ICtDFT=  3500011 ScaDFX=  1.000000  1.000000  1.000000  1.000000
 FoFCou: FMM=F IPFlag=           0 FMFlag=      100000 FMFlg1=           0
         NFxFlg=           0 DoJE=T BraDBF=F KetDBF=T FulRan=T
         wScrn=  0.000000 ICntrl=       500 IOpCl=  0 I1Cent=   200000004 NGrid=           0
         NMat0=    1 NMatS0=      1 NMatT0=    0 NMatD0=    1 NMtDS0=    0 NMtDT0=    0
 Petite list used in FoFCou.
 Requested convergence on RMS density matrix=1.00D-08 within 128 cycles.
 Requested convergence on MAX density matrix=1.00D-06.
 Requested convergence on             energy=1.00D-06.
 No special actions if energy rises.
 Integral accuracy reduced to 1.0D-05 until final iterations.
 Initial convergence to 1.0D-05 achieved.  Increase integral accuracy.
 SCF Done:  E(RwB97XD) =  -607.132635091     A.U. after   17 cycles
            NFock= 17  Conv=0.23D-08     -V/T= 2.0045

 **********************************************************************

            Population analysis using the SCF Density.

 **********************************************************************

 Orbital symmetries:
       Occupied  (A) (A) (A) (A) (A) (A) (A) (A) (A) (A) (A) (A)
                 (A) (A) (A) (A) (A) (A) (A) (A) (A) (A) (A) (A)
                 (A) (A) (A) (A) (A) (A) (A) (A) (A) (A) (A) (A)
                 (A) (A) (A) (A) (A) (A) (A) (A) (A) (A) (A) (A)
       Virtual   (A) (A) (A) (A) (A) (A) (A) (A) (A) (A) (A) (A)
                 (A) (A) (A) (A) (A) (A) (A) (A) (A) (A) (A) (A)
                 (A) (A) (A) (A) (A) (A) (A) (A) (A) (A) (A) (A)
                 (A) (A) (A) (A) (A) (A) (A) (A) (A) (A) (A) (A)
                 (A) (A) (A) (A) (A) (A) (A) (A) (A) (A) (A) (A)
                 (A) (A) (A) (A) (A) (A) (A) (A) (A) (A) (A) (A)
                 (A) (A) (A) (A) (A) (A) (A) (A) (A) (A) (A) (A)
                 (A) (A) (A) (A) (A) (A) (A) (A) (A) (A) (A) (A)
                 (A) (A) (A) (A) (A) (A) (A) (A) (A) (A) (A) (A)
                 (A) (A) (A) (A) (A) (A) (A) (A) (A) (A) (A) (A)
                 (A) (A) (A) (A) (A) (A) (A) (A) (A) (A) (A) (A)
                 (A) (A) (A) (A) (A) (A) (A) (A) (A) (A) (A) (A)
                 (A) (A) (A) (A) (A) (A) (A) (A) (A) (A) (A) (A)
                 (A) (A) (A) (A) (A) (A) (A) (A) (A) (A) (A) (A)
                 (A) (A) (A) (A) (A) (A) (A) (A) (A) (A) (A) (A)
                 (A) (A) (A) (A) (A) (A) (A) (A) (A) (A) (A) (A)
                 (A) (A) (A) (A) (A) (A) (A) (A) (A) (A) (A) (A)
                 (A) (A) (A) (A) (A) (A) (A) (A) (A) (A) (A) (A)
                 (A) (A) (A) (A) (A) (A) (A) (A) (A) (A) (A) (A)
                 (A) (A) (A) (A) (A) (A) (A) (A) (A) (A) (A) (A)
                 (A) (A) (A) (A) (A) (A) (A) (A) (A) (A) (A) (A)
                 (A) (A) (A) (A) (A) (A) (A) (A) (A) (A) (A) (A)
                 (A) (A) (A) (A) (A) (A) (A) (A) (A) (A) (A) (A)
                 (A) (A) (A) (A) (A) (A) (A) (A) (A) (A) (A) (A)
                 (A) (A) (A) (A) (A) (A) (A) (A) (A) (A) (A) (A)
                 (A) (A) (A) (A) (A) (A) (A) (A) (A) (A) (A) (A)
                 (A) (A) (A) (A) (A) (A) (A) (A) (A) (A) (A) (A)
                 (A) (A) (A) (A) (A) (A) (A) (A) (A) (A) (A) (A)
                 (A) (A) (A) (A) (A) (A) (A) (A) (A) (A) (A) (A)
                 (A) (A) (A) (A) (A) (A) (A) (A) (A) (A) (A) (A)
                 (A) (A) (A) (A) (A) (A) (A) (A) (A) (A) (A) (A)
                 (A) (A) (A) (A) (A) (A) (A) (A) (A) (A) (A) (A)
                 (A) (A) (A) (A) (A) (A) (A) (A) (A) (A) (A) (A)
                 (A) (A) (A) (A) (A) (A) (A) (A) (A) (A) (A) (A)
                 (A) (A) (A) (A) (A) (A)
 The electronic state is 1-A.
 Alpha  occ. eigenvalues --  -19.20421 -19.14475 -14.37147 -14.23903 -14.22533
 Alpha  occ. eigenvalues --  -14.22196 -10.32613 -10.25467 -10.19391 -10.16789
 Alpha  occ. eigenvalues --  -10.15864 -10.09999  -1.12371  -1.03769  -0.94111
 Alpha  occ. eigenvalues --   -0.85532  -0.80062  -0.77098  -0.73940  -0.71248
 Alpha  occ. eigenvalues --   -0.62978  -0.60594  -0.56969  -0.54596  -0.51432
 Alpha  occ. eigenvalues --   -0.48813  -0.47887  -0.45818  -0.45276  -0.43371
 Alpha  occ. eigenvalues --   -0.41552  -0.40409  -0.39048  -0.37206  -0.36341
 Alpha  occ. eigenvalues --   -0.34946  -0.33894  -0.32682  -0.31886  -0.31180
 Alpha  occ. eigenvalues --   -0.30471  -0.28802  -0.28109  -0.26196  -0.18599
 Alpha  occ. eigenvalues --   -0.15553  -0.11877  -0.03611
 Alpha virt. eigenvalues --    0.15791   0.18121   0.20614   0.22636   0.23409
 Alpha virt. eigenvalues --    0.25102   0.25770   0.26600   0.27636   0.28105
 Alpha virt. eigenvalues --    0.29992   0.30990   0.32233   0.32765   0.33074
 Alpha virt. eigenvalues --    0.35037   0.35166   0.35368   0.36260   0.37532
 Alpha virt. eigenvalues --    0.37813   0.39303   0.40668   0.42131   0.43964
 Alpha virt. eigenvalues --    0.43984   0.44779   0.45620   0.46287   0.47425
 Alpha virt. eigenvalues --    0.47708   0.48631   0.49472   0.50859   0.51375
 Alpha virt. eigenvalues --    0.52542   0.53469   0.54008   0.54844   0.55458
 Alpha virt. eigenvalues --    0.56132   0.56357   0.57365   0.57765   0.59359
 Alpha virt. eigenvalues --    0.59577   0.60760   0.61432   0.61828   0.62390
 Alpha virt. eigenvalues --    0.62773   0.63802   0.64000   0.64796   0.65272
 Alpha virt. eigenvalues --    0.65708   0.66196   0.66893   0.67774   0.69102
 Alpha virt. eigenvalues --    0.69587   0.70107   0.70907   0.71886   0.72029
 Alpha virt. eigenvalues --    0.72142   0.73344   0.73830   0.74440   0.75426
 Alpha virt. eigenvalues --    0.77304   0.78268   0.78682   0.79347   0.80685
 Alpha virt. eigenvalues --    0.82255   0.82407   0.83634   0.84487   0.86002
 Alpha virt. eigenvalues --    0.86235   0.88819   0.90512   0.91041   0.92850
 Alpha virt. eigenvalues --    0.94833   0.96357   0.97949   0.99709   1.00810
 Alpha virt. eigenvalues --    1.02494   1.03823   1.06099   1.06367   1.08018
 Alpha virt. eigenvalues --    1.09064   1.09831   1.10162   1.13154   1.15400
 Alpha virt. eigenvalues --    1.17016   1.17463   1.18747   1.21152   1.22765
 Alpha virt. eigenvalues --    1.23796   1.26263   1.28247   1.29894   1.30525
 Alpha virt. eigenvalues --    1.33316   1.33947   1.36434   1.38049   1.40464
 Alpha virt. eigenvalues --    1.41107   1.43154   1.46339   1.47472   1.48695
 Alpha virt. eigenvalues --    1.49436   1.50833   1.52393   1.52752   1.53975
 Alpha virt. eigenvalues --    1.55004   1.55902   1.57207   1.58181   1.60391
 Alpha virt. eigenvalues --    1.61384   1.63459   1.64813   1.65529   1.66795
 Alpha virt. eigenvalues --    1.67443   1.70173   1.70848   1.72446   1.73580
 Alpha virt. eigenvalues --    1.73836   1.75756   1.77747   1.78327   1.80062
 Alpha virt. eigenvalues --    1.80331   1.81920   1.82878   1.85194   1.86736
 Alpha virt. eigenvalues --    1.88764   1.89485   1.92976   1.93846   1.95356
 Alpha virt. eigenvalues --    1.95427   1.97029   1.98687   1.99177   2.00949
 Alpha virt. eigenvalues --    2.02310   2.04093   2.05271   2.06077   2.08035
 Alpha virt. eigenvalues --    2.09380   2.09951   2.10748   2.11470   2.13473
 Alpha virt. eigenvalues --    2.15695   2.16003   2.16609   2.18355   2.20531
 Alpha virt. eigenvalues --    2.21332   2.22155   2.22526   2.23573   2.24995
 Alpha virt. eigenvalues --    2.25745   2.26573   2.27097   2.28708   2.29290
 Alpha virt. eigenvalues --    2.31677   2.32886   2.33562   2.36873   2.37480
 Alpha virt. eigenvalues --    2.40136   2.40475   2.43566   2.44413   2.45363
 Alpha virt. eigenvalues --    2.46043   2.48382   2.48937   2.51520   2.52119
 Alpha virt. eigenvalues --    2.54693   2.56327   2.58030   2.58587   2.60071
 Alpha virt. eigenvalues --    2.60917   2.62279   2.64899   2.65630   2.68103
 Alpha virt. eigenvalues --    2.68932   2.69021   2.70932   2.71802   2.73216
 Alpha virt. eigenvalues --    2.75159   2.76309   2.77535   2.79189   2.80213
 Alpha virt. eigenvalues --    2.81925   2.83065   2.83714   2.84194   2.86343
 Alpha virt. eigenvalues --    2.88717   2.89488   2.90251   2.90731   2.91089
 Alpha virt. eigenvalues --    2.94491   2.94852   2.95679   2.96418   2.97291
 Alpha virt. eigenvalues --    2.99746   3.03968   3.05100   3.06532   3.08057
 Alpha virt. eigenvalues --    3.09159   3.10346   3.12221   3.13474   3.14612
 Alpha virt. eigenvalues --    3.16994   3.18831   3.21637   3.22199   3.25174
 Alpha virt. eigenvalues --    3.25898   3.26113   3.28616   3.29326   3.30145
 Alpha virt. eigenvalues --    3.31969   3.32160   3.38123   3.38983   3.41245
 Alpha virt. eigenvalues --    3.41972   3.42862   3.44766   3.45181   3.46297
 Alpha virt. eigenvalues --    3.46582   3.48782   3.49871   3.51250   3.51848
 Alpha virt. eigenvalues --    3.52576   3.53632   3.54360   3.56653   3.58972
 Alpha virt. eigenvalues --    3.60662   3.62416   3.63993   3.64840   3.65996
 Alpha virt. eigenvalues --    3.68110   3.68962   3.69597   3.70832   3.74078
 Alpha virt. eigenvalues --    3.75427   3.76555   3.77739   3.81437   3.82022
 Alpha virt. eigenvalues --    3.83473   3.85663   3.86089   3.88362   3.92083
 Alpha virt. eigenvalues --    3.93959   3.95051   3.99578   4.04145   4.04810
 Alpha virt. eigenvalues --    4.06098   4.08019   4.11300   4.12477   4.13752
 Alpha virt. eigenvalues --    4.14099   4.18040   4.20525   4.21145   4.21880
 Alpha virt. eigenvalues --    4.26379   4.31487   4.32794   4.36561   4.37740
 Alpha virt. eigenvalues --    4.40522   4.43718   4.48598   4.51008   4.53626
 Alpha virt. eigenvalues --    4.53982   4.57625   4.58734   4.59930   4.60813
 Alpha virt. eigenvalues --    4.64107   4.66294   4.70293   4.74351   4.74734
 Alpha virt. eigenvalues --    4.77532   4.81543   4.84594   4.88337   4.89466
 Alpha virt. eigenvalues --    4.91619   4.93513   4.97691   4.98876   4.99410
 Alpha virt. eigenvalues --    5.00953   5.02021   5.07433   5.09585   5.10305
 Alpha virt. eigenvalues --    5.11880   5.12917   5.16910   5.18798   5.20641
 Alpha virt. eigenvalues --    5.24422   5.26055   5.28091   5.30067   5.30632
 Alpha virt. eigenvalues --    5.34055   5.35074   5.35244   5.38134   5.38583
 Alpha virt. eigenvalues --    5.41286   5.42240   5.45278   5.46694   5.48795
 Alpha virt. eigenvalues --    5.49604   5.52971   5.56721   5.59590   5.61382
 Alpha virt. eigenvalues --    5.63844   5.68273   5.70569   5.72315   5.72639
 Alpha virt. eigenvalues --    5.74077   5.76264   5.80429   5.86847   5.87750
 Alpha virt. eigenvalues --    5.93339   5.94102   5.96499   6.01193   6.10709
 Alpha virt. eigenvalues --    6.16556   6.20208   6.25858   6.35951   6.36441
 Alpha virt. eigenvalues --    6.53631   6.58950   6.63520   6.67847   6.89956
 Alpha virt. eigenvalues --    6.90133   6.97029   7.00755   7.19116   7.30569
 Alpha virt. eigenvalues --    7.34110   7.46541  22.62025  22.71270  22.73365
 Alpha virt. eigenvalues --   22.76945  22.79960  23.51681  32.20083  32.22183
 Alpha virt. eigenvalues --   32.30677  32.74904  44.02111  44.08741
          Condensed to atoms (all electrons):
               1          2          3          4          5          6
     1  N    6.771194   0.368697   0.372493   0.056217   0.142706  -0.044805
     2  H    0.368697   0.441775  -0.028763  -0.001653  -0.033595   0.005967
     3  H    0.372493  -0.028763   0.442053  -0.000773  -0.019366  -0.010993
     4  H    0.056217  -0.001653  -0.000773   0.358828  -0.017514   0.001364
     5  C    0.142706  -0.033595  -0.019366  -0.017514   5.404166   0.404340
     6  H   -0.044805   0.005967  -0.010993   0.001364   0.404340   0.578477
     7  C   -0.050460  -0.005906  -0.002918   0.003811   0.223378  -0.035773
     8  H    0.008512   0.000338  -0.000453  -0.000234  -0.044725  -0.003126
     9  H   -0.010422   0.004963  -0.000161  -0.000098  -0.024939   0.008544
    10  C    0.010064  -0.000144   0.001701  -0.000244  -0.041032  -0.003578
    11  H    0.017705   0.003239  -0.000421   0.000006  -0.024021  -0.000811
    12  H   -0.001737   0.000348   0.000414  -0.000046   0.005968   0.003027
    13  C    0.001911  -0.000497   0.000177   0.000005  -0.014482   0.000723
    14  H   -0.000105   0.000051  -0.000006   0.000000   0.001672  -0.000010
    15  H    0.000066  -0.000008   0.000047  -0.000002   0.002201  -0.000245
    16  N    0.000117   0.000005   0.000008  -0.000000  -0.000984  -0.000071
    17  H   -0.000182   0.000109   0.000004  -0.000001   0.001142  -0.000056
    18  C    0.000017  -0.000009   0.000000  -0.000000  -0.000152   0.000004
    19  N   -0.000000   0.000002   0.000000   0.000000   0.000025  -0.000001
    20  H   -0.000000   0.000000  -0.000000   0.000000   0.000006   0.000000
    21  H   -0.000001   0.000005   0.000000  -0.000000   0.000027  -0.000001
    22  N   -0.000000   0.000000   0.000000  -0.000000  -0.000002  -0.000000
    23  H   -0.000000  -0.000000   0.000000   0.000000   0.000000  -0.000000
    24  H   -0.000000   0.000000   0.000000  -0.000000   0.000007  -0.000000
    25  C   -0.006127  -0.000626   0.000448  -0.034423   0.233406  -0.014183
    26  O   -0.045384   0.000868   0.000307   0.288910  -0.123786   0.001699
    27  O    0.005318  -0.000022  -0.000214   0.005001  -0.131373   0.002425
               7          8          9         10         11         12
     1  N   -0.050460   0.008512  -0.010422   0.010064   0.017705  -0.001737
     2  H   -0.005906   0.000338   0.004963  -0.000144   0.003239   0.000348
     3  H   -0.002918  -0.000453  -0.000161   0.001701  -0.000421   0.000414
     4  H    0.003811  -0.000234  -0.000098  -0.000244   0.000006  -0.000046
     5  C    0.223378  -0.044725  -0.024939  -0.041032  -0.024021   0.005968
     6  H   -0.035773  -0.003126   0.008544  -0.003578  -0.000811   0.003027
     7  C    5.318331   0.396236   0.389825   0.143884  -0.057105  -0.019885
     8  H    0.396236   0.532426  -0.016391  -0.017587   0.007856  -0.006885
     9  H    0.389825  -0.016391   0.599529  -0.058479  -0.006006   0.008376
    10  C    0.143884  -0.017587  -0.058479   5.298760   0.411716   0.355445
    11  H   -0.057105   0.007856  -0.006006   0.411716   0.667198  -0.042625
    12  H   -0.019885  -0.006885   0.008376   0.355445  -0.042625   0.625079
    13  C   -0.056785   0.005384   0.006240   0.142395  -0.032328  -0.025222
    14  H   -0.027803   0.003419  -0.001406   0.045937   0.012290  -0.014222
    15  H    0.048603  -0.002741   0.004960  -0.093908  -0.014916   0.018634
    16  N    0.011418   0.000137   0.000219  -0.100254  -0.005310   0.018853
    17  H   -0.002446  -0.000160  -0.000381   0.039906   0.018911  -0.000509
    18  C   -0.002820  -0.000091   0.000156  -0.006086  -0.001800  -0.000121
    19  N    0.001504  -0.000005  -0.000137   0.006870  -0.000285   0.000202
    20  H   -0.000156   0.000012  -0.000042   0.001571   0.000069  -0.000126
    21  H    0.000039  -0.000014  -0.000053   0.005677   0.000958   0.000078
    22  N   -0.000110  -0.000000  -0.000001  -0.001156  -0.000054  -0.000137
    23  H    0.000074  -0.000002   0.000001  -0.000391  -0.000083   0.000359
    24  H    0.000002  -0.000003  -0.000001   0.002465   0.000305   0.000226
    25  C   -0.018195  -0.002251  -0.002188  -0.004060  -0.000423   0.000698
    26  O   -0.001459   0.000947   0.002265  -0.000663  -0.000009   0.000012
    27  O    0.011584   0.012345   0.000308  -0.001352  -0.000079   0.000025
              13         14         15         16         17         18
     1  N    0.001911  -0.000105   0.000066   0.000117  -0.000182   0.000017
     2  H   -0.000497   0.000051  -0.000008   0.000005   0.000109  -0.000009
     3  H    0.000177  -0.000006   0.000047   0.000008   0.000004   0.000000
     4  H    0.000005   0.000000  -0.000002  -0.000000  -0.000001  -0.000000
     5  C   -0.014482   0.001672   0.002201  -0.000984   0.001142  -0.000152
     6  H    0.000723  -0.000010  -0.000245  -0.000071  -0.000056   0.000004
     7  C   -0.056785  -0.027803   0.048603   0.011418  -0.002446  -0.002820
     8  H    0.005384   0.003419  -0.002741   0.000137  -0.000160  -0.000091
     9  H    0.006240  -0.001406   0.004960   0.000219  -0.000381   0.000156
    10  C    0.142395   0.045937  -0.093908  -0.100254   0.039906  -0.006086
    11  H   -0.032328   0.012290  -0.014916  -0.005310   0.018911  -0.001800
    12  H   -0.025222  -0.014222   0.018634   0.018853  -0.000509  -0.000121
    13  C    5.209716   0.281900   0.344446   0.436566  -0.165873  -0.067161
    14  H    0.281900   0.678167  -0.070867  -0.055447   0.043807   0.035107
    15  H    0.344446  -0.070867   0.863701  -0.103576  -0.005700  -0.032391
    16  N    0.436566  -0.055447  -0.103576   6.813267   0.147877   0.525114
    17  H   -0.165873   0.043807  -0.005700   0.147877   1.010588  -0.284293
    18  C   -0.067161   0.035107  -0.032391   0.525114  -0.284293   5.699344
    19  N    0.014364  -0.003024   0.040426  -0.162403  -0.015897   0.350156
    20  H    0.004628   0.001206  -0.002195   0.005548  -0.000071  -0.073661
    21  H   -0.015881   0.008279   0.006448  -0.043975   0.128297  -0.277792
    22  N    0.007245   0.003310  -0.000255  -0.174313   0.026005   0.415794
    23  H    0.001231  -0.000583   0.000506   0.014378   0.001169  -0.077774
    24  H   -0.007750   0.002673   0.001200  -0.044231   0.103822  -0.251371
    25  C   -0.000299  -0.000138   0.000415  -0.000002   0.000008  -0.000003
    26  O    0.000004  -0.000001  -0.000001  -0.000000  -0.000000   0.000000
    27  O    0.000197  -0.000029  -0.000004  -0.000000   0.000000   0.000000
              19         20         21         22         23         24
     1  N   -0.000000  -0.000000  -0.000001  -0.000000  -0.000000  -0.000000
     2  H    0.000002   0.000000   0.000005   0.000000  -0.000000   0.000000
     3  H    0.000000  -0.000000   0.000000   0.000000   0.000000   0.000000
     4  H    0.000000   0.000000  -0.000000  -0.000000   0.000000  -0.000000
     5  C    0.000025   0.000006   0.000027  -0.000002   0.000000   0.000007
     6  H   -0.000001   0.000000  -0.000001  -0.000000  -0.000000  -0.000000
     7  C    0.001504  -0.000156   0.000039  -0.000110   0.000074   0.000002
     8  H   -0.000005   0.000012  -0.000014  -0.000000  -0.000002  -0.000003
     9  H   -0.000137  -0.000042  -0.000053  -0.000001   0.000001  -0.000001
    10  C    0.006870   0.001571   0.005677  -0.001156  -0.000391   0.002465
    11  H   -0.000285   0.000069   0.000958  -0.000054  -0.000083   0.000305
    12  H    0.000202  -0.000126   0.000078  -0.000137   0.000359   0.000226
    13  C    0.014364   0.004628  -0.015881   0.007245   0.001231  -0.007750
    14  H   -0.003024   0.001206   0.008279   0.003310  -0.000583   0.002673
    15  H    0.040426  -0.002195   0.006448  -0.000255   0.000506   0.001200
    16  N   -0.162403   0.005548  -0.043975  -0.174313   0.014378  -0.044231
    17  H   -0.015897  -0.000071   0.128297   0.026005   0.001169   0.103822
    18  C    0.350156  -0.073661  -0.277792   0.415794  -0.077774  -0.251371
    19  N    6.738065   0.389508   0.242788  -0.093777   0.013459  -0.025702
    20  H    0.389508   0.544052  -0.050894   0.009610  -0.001462  -0.001306
    21  H    0.242788  -0.050894   0.893660  -0.007666  -0.000608   0.095061
    22  N   -0.093777   0.009610  -0.007666   6.685248   0.367073   0.267707
    23  H    0.013459  -0.001462  -0.000608   0.367073   0.564251  -0.042483
    24  H   -0.025702  -0.001306   0.095061   0.267707  -0.042483   0.862544
    25  C    0.000000  -0.000000   0.000000  -0.000000   0.000000   0.000000
    26  O   -0.000000  -0.000000   0.000000  -0.000000  -0.000000   0.000000
    27  O    0.000000  -0.000000   0.000000   0.000000   0.000000   0.000000
              25         26         27
     1  N   -0.006127  -0.045384   0.005318
     2  H   -0.000626   0.000868  -0.000022
     3  H    0.000448   0.000307  -0.000214
     4  H   -0.034423   0.288910   0.005001
     5  C    0.233406  -0.123786  -0.131373
     6  H   -0.014183   0.001699   0.002425
     7  C   -0.018195  -0.001459   0.011584
     8  H   -0.002251   0.000947   0.012345
     9  H   -0.002188   0.002265   0.000308
    10  C   -0.004060  -0.000663  -0.001352
    11  H   -0.000423  -0.000009  -0.000079
    12  H    0.000698   0.000012   0.000025
    13  C   -0.000299   0.000004   0.000197
    14  H   -0.000138  -0.000001  -0.000029
    15  H    0.000415  -0.000001  -0.000004
    16  N   -0.000002  -0.000000  -0.000000
    17  H    0.000008  -0.000000   0.000000
    18  C   -0.000003   0.000000   0.000000
    19  N    0.000000  -0.000000   0.000000
    20  H   -0.000000  -0.000000  -0.000000
    21  H    0.000000   0.000000   0.000000
    22  N   -0.000000  -0.000000   0.000000
    23  H    0.000000  -0.000000   0.000000
    24  H    0.000000   0.000000   0.000000
    25  C    4.436037   0.392313   0.700649
    26  O    0.392313   7.953838  -0.085404
    27  O    0.700649  -0.085404   7.840560
 Mulliken charges:
               1
     1  N   -0.595793
     2  H    0.244854
     3  H    0.246415
     4  H    0.340845
     5  C    0.056925
     6  H    0.107084
     7  C   -0.266869
     8  H    0.127057
     9  H    0.095321
    10  C   -0.137456
    11  H    0.046024
    12  H    0.073771
    13  C   -0.070854
    14  H    0.055821
    15  H   -0.004844
    16  N   -0.282941
    17  H   -0.046078
    18  C    0.049833
    19  N   -0.496139
    20  H    0.173703
    21  H    0.015568
    22  N   -0.504523
    23  H    0.160884
    24  H    0.036835
    25  C    0.318944
    26  O   -0.384455
    27  O   -0.359933
 Sum of Mulliken charges =  -1.00000
 Mulliken charges with hydrogens summed into heavy atoms:
               1
     1  N   -0.104524
     5  C    0.164009
     7  C   -0.044492
    10  C   -0.017660
    13  C   -0.019876
    16  N   -0.329019
    18  C    0.049833
    19  N   -0.306868
    22  N   -0.306805
    25  C    0.318944
    26  O   -0.043609
    27  O   -0.359933
 Electronic spatial extent (au):  <R**2>=           4291.2641
 Charge=             -1.0000 electrons
 Dipole moment (field-independent basis, Debye):
    X=            -14.1009    Y=              5.7910    Z=              0.8627  Tot=             15.2682
 Quadrupole moment (field-independent basis, Debye-Ang):
   XX=           -197.7637   YY=            -83.3266   ZZ=            -78.7313
   XY=             -2.8309   XZ=              0.4112   YZ=             -1.7171
 Traceless Quadrupole moment (field-independent basis, Debye-Ang):
   XX=            -77.8232   YY=             36.6140   ZZ=             41.2092
   XY=             -2.8309   XZ=              0.4112   YZ=             -1.7171
 Octapole moment (field-independent basis, Debye-Ang**2):
  XXX=           -355.8055  YYY=             20.8457  ZZZ=             -3.2485  XYY=            -19.3091
  XXY=             94.3381  XXZ=             -8.2598  XZZ=            -34.2359  YZZ=              5.2169
  YYZ=              3.8058  XYZ=              3.8452
 Hexadecapole moment (field-independent basis, Debye-Ang**3):
 XXXX=          -8081.9454 YYYY=           -422.9049 ZZZZ=           -267.3442 XXXY=             53.9793
 XXXZ=            -25.6206 YYYX=            -26.1917 YYYZ=            -10.8077 ZZZX=            -33.9785
 ZZZY=             -0.6835 XXYY=          -1040.8340 XXZZ=           -949.7404 YYZZ=           -113.4284
 XXYZ=            -15.1297 YYXZ=             -7.1190 ZZXY=              4.3507
 N-N= 7.113338811219D+02 E-N=-2.854465792425D+03  KE= 6.044139470317D+02
 Unable to Open any file for archive entry.
 1\1\GINC-WATER\SP\RwB97XD\def2TZVP\C6H15N4O2(1-)\DAYALYZ\11-Jun-2025\0
 \\# wB97xD/Def2TZVP SCF(Tight) Int(Grid=299974)\\Displacement_0.05\\-1
 ,1\N,0,-2.449391,1.662106,0.312579\H,0,-1.892601,1.661727,1.158668\H,0
 ,-2.080546,2.396181,-0.273303\H,0,-4.177396,1.141286,0.662011\C,0,-2.3
 48291,0.354291,-0.351331\H,0,-2.34121,0.525036,-1.432399\C,0,-1.094454
 ,-0.433998,0.018947\H,0,-1.158799,-1.420651,-0.442292\H,0,-1.094388,-0
 .600813,1.103594\C,0,0.189472,0.269027,-0.401511\H,0,0.226249,1.274775
 ,0.033698\H,0,0.202187,0.403801,-1.488111\C,0,1.454987,-0.475381,0.010
 983\H,0,1.500154,-1.449164,-0.486822\H,0,1.386851,-0.691928,1.097108\N
 ,0,2.637813,0.252447,-0.370362\H,0,2.663477,1.14038,0.185321\C,0,3.910
 6,-0.45352,-0.158739\N,0,4.228364,-0.561212,1.257282\H,0,3.547317,-1.1
 67161,1.695452\H,0,4.145188,0.391081,1.683439\N,0,4.953703,0.387604,-0
 .712669\H,0,4.685541,0.627868,-1.660912\H,0,4.939328,1.326549,-0.24142
 1\C,0,-3.634014,-0.44553,-0.088747\O,0,-4.586522,0.257947,0.524834\O,0
 ,-3.789113,-1.585375,-0.425703\\Version=ES64L-G16RevC.01\State=1-A\HF=
 -607.1326351\RMSD=2.274e-09\Dipole=-5.5479418,2.2784081,0.3357764\Quad
 rupole=-57.8591351,27.2164568,30.6426783,-2.1131234,0.3184567,-1.27006
 01\PG=C01 [X(C6H15N4O2)]\\@
 The archive entry for this job was punched.


 ... IT CAN BE VERY DIFFICULT, IN THESE COMPLEX TIMES,
 TO UNDERSTAND JUST HOW SCIENTISTS DO WHAT THEY DO.

                     DON MOSER IN THE FEBRUARY 1979 SMITHSONIAN
 Job cpu time:       0 days  0 hours 49 minutes 55.9 seconds.
 Elapsed time:       0 days  0 hours 50 minutes  2.3 seconds.
 File lengths (MBytes):  RWF=    118 Int=      0 D2E=      0 Chk=     13 Scr=      1
 Normal termination of Gaussian 16 at Wed Jun 11 02:13:06 2025.
