 Entering Gaussian System, Link 0=g16
 Initial command:
 /opt/gaussian/g16/l1.exe "/scratch/Gau-286858.inp" -scrdir="/scratch/"
 Entering Link 1 = /opt/gaussian/g16/l1.exe PID=    286859.
  
 Copyright (c) 1988-2019, Gaussian, Inc.  All Rights Reserved.
  
 This is part of the Gaussian(R) 16 program.  It is based on
 the Gaussian(R) 09 system (copyright 2009, Gaussian, Inc.),
 the Gaussian(R) 03 system (copyright 2003, Gaussian, Inc.),
 the Gaussian(R) 98 system (copyright 1998, Gaussian, Inc.),
 the Gaussian(R) 94 system (copyright 1995, Gaussian, Inc.),
 the Gaussian 92(TM) system (copyright 1992, Gaussian, Inc.),
 the Gaussian 90(TM) system (copyright 1990, Gaussian, Inc.),
 the Gaussian 88(TM) system (copyright 1988, Gaussian, Inc.),
 the Gaussian 86(TM) system (copyright 1986, Carnegie Mellon
 University), and the Gaussian 82(TM) system (copyright 1983,
 Carnegie Mellon University). Gaussian is a federally registered
 trademark of Gaussian, Inc.
  
 This software contains proprietary and confidential information,
 including trade secrets, belonging to Gaussian, Inc.
  
 This software is provided under written license and may be
 used, copied, transmitted, or stored only in accord with that
 written license.
  
 The following legend is applicable only to US Government
 contracts under FAR:
  
                    RESTRICTED RIGHTS LEGEND
  
 Use, reproduction and disclosure by the US Government is
 subject to restrictions as set forth in subparagraphs (a)
 and (c) of the Commercial Computer Software - Restricted
 Rights clause in FAR 52.227-19.
  
 Gaussian, Inc.
 340 Quinnipiac St., Bldg. 40, Wallingford CT 06492
  
  
 ---------------------------------------------------------------
 Warning -- This program may not be used in any manner that
 competes with the business of Gaussian, Inc. or will provide
 assistance to any competitor of Gaussian, Inc.  The licensee
 of this program is prohibited from giving any competitor of
 Gaussian, Inc. access to this program.  By using this program,
 the user acknowledges that Gaussian, Inc. is engaged in the
 business of creating and licensing software in the field of
 computational chemistry and represents and warrants to the
 licensee that it is not a competitor of Gaussian, Inc. and that
 it will not use this program in any manner prohibited above.
 ---------------------------------------------------------------
  

 Cite this work as:
 Gaussian 16, Revision C.01,
 M. J. Frisch, G. W. Trucks, H. B. Schlegel, G. E. Scuseria, 
 M. A. Robb, J. R. Cheeseman, G. Scalmani, V. Barone, 
 G. A. Petersson, H. Nakatsuji, X. Li, M. Caricato, A. V. Marenich, 
 J. Bloino, B. G. Janesko, R. Gomperts, B. Mennucci, H. P. Hratchian, 
 J. V. Ortiz, A. F. Izmaylov, J. L. Sonnenberg, D. Williams-Young, 
 F. Ding, F. Lipparini, F. Egidi, J. Goings, B. Peng, A. Petrone, 
 T. Henderson, D. Ranasinghe, V. G. Zakrzewski, J. Gao, N. Rega, 
 G. Zheng, W. Liang, M. Hada, M. Ehara, K. Toyota, R. Fukuda, 
 J. Hasegawa, M. Ishida, T. Nakajima, Y. Honda, O. Kitao, H. Nakai, 
 T. Vreven, K. Throssell, J. A. Montgomery, Jr., J. E. Peralta, 
 F. Ogliaro, M. J. Bearpark, J. J. Heyd, E. N. Brothers, K. N. Kudin, 
 V. N. Staroverov, T. A. Keith, R. Kobayashi, J. Normand, 
 K. Raghavachari, A. P. Rendell, J. C. Burant, S. S. Iyengar, 
 J. Tomasi, M. Cossi, J. M. Millam, M. Klene, C. Adamo, R. Cammi, 
 J. W. Ochterski, R. L. Martin, K. Morokuma, O. Farkas, 
 J. B. Foresman, and D. J. Fox, Gaussian, Inc., Wallingford CT, 2019.
 
 ******************************************
 Gaussian 16:  ES64L-G16RevC.01  3-Jul-2019
                11-Jun-2025 
 ******************************************
 ---------------------------------------------
 # wB97xD/Def2TZVP SCF(Tight) Int(Grid=299974)
 ---------------------------------------------
 1/38=1,172=1/1;
 2/12=2,17=6,18=5,40=1/2;
 3/5=44,7=101,11=2,25=1,30=1,74=-58,75=299974/1,2,3;
 4//1;
 5/5=2,32=2,38=5/2;
 6/7=2,8=2,9=2,10=2,28=1/1;
 99/5=1,9=1/99;
 -----------------
 Displacement_0.01
 -----------------
 Symbolic Z-matrix:
 Charge = -1 Multiplicity = 1
 N                    -2.44939   1.66211   0.31258 
 H                    -1.8926    1.66173   1.15867 
 H                    -2.08055   2.39618  -0.2733 
 H                    -4.1774    1.14129   0.66201 
 C                    -2.34829   0.35429  -0.35133 
 H                    -2.34121   0.52504  -1.4324 
 C                    -1.09445  -0.434     0.01895 
 H                    -1.1588   -1.42065  -0.44229 
 H                    -1.09439  -0.60081   1.10359 
 C                     0.18947   0.26903  -0.40151 
 H                     0.22625   1.27477   0.0337 
 H                     0.20219   0.4038   -1.48811 
 C                     1.45499  -0.47538   0.01098 
 H                     1.50015  -1.44876  -0.48722 
 H                     1.38725  -0.69153   1.09711 
 N                     2.63781   0.25245  -0.37036 
 H                     2.66348   1.14038   0.18492 
 C                     3.911    -0.45352  -0.15914 
 N                     4.22876  -0.56161   1.25528 
 H                     3.54572  -1.15276   1.71025 
 H                     4.13519   0.38308   1.70104 
 N                     4.9541    0.3892   -0.71347 
 H                     4.68234   0.60987  -1.66451 
 H                     4.93813   1.31655  -0.22542 
 C                    -3.63401  -0.44553  -0.08875 
 O                    -4.58652   0.25795   0.52483 
 O                    -3.78911  -1.58538  -0.4257 
 
                          Input orientation:                          
 ---------------------------------------------------------------------
 Center     Atomic      Atomic             Coordinates (Angstroms)
 Number     Number       Type             X           Y           Z
 ---------------------------------------------------------------------
      1          7           0       -2.449391    1.662106    0.312579
      2          1           0       -1.892601    1.661727    1.158668
      3          1           0       -2.080546    2.396181   -0.273303
      4          1           0       -4.177396    1.141286    0.662011
      5          6           0       -2.348291    0.354291   -0.351331
      6          1           0       -2.341210    0.525036   -1.432399
      7          6           0       -1.094454   -0.433998    0.018947
      8          1           0       -1.158799   -1.420651   -0.442292
      9          1           0       -1.094388   -0.600813    1.103594
     10          6           0        0.189472    0.269027   -0.401511
     11          1           0        0.226249    1.274775    0.033698
     12          1           0        0.202187    0.403801   -1.488111
     13          6           0        1.454987   -0.475381    0.010983
     14          1           0        1.500154   -1.448764   -0.487222
     15          1           0        1.387251   -0.691528    1.097108
     16          7           0        2.637813    0.252447   -0.370362
     17          1           0        2.663477    1.140380    0.184921
     18          6           0        3.911000   -0.453520   -0.159139
     19          7           0        4.228764   -0.561612    1.255282
     20          1           0        3.545717   -1.152761    1.710252
     21          1           0        4.135188    0.383081    1.701039
     22          7           0        4.954103    0.389204   -0.713469
     23          1           0        4.682341    0.609868   -1.664512
     24          1           0        4.938128    1.316549   -0.225421
     25          6           0       -3.634014   -0.445530   -0.088747
     26          8           0       -4.586522    0.257947    0.524834
     27          8           0       -3.789113   -1.585375   -0.425703
 ---------------------------------------------------------------------
                    Distance matrix (angstroms):
                    1          2          3          4          5
     1  N    0.000000
     2  H    1.012858   0.000000
     3  H    1.009044   1.620274   0.000000
     4  H    1.838303   2.395374   2.616554   0.000000
     5  C    1.470162   2.048692   2.060847   2.234244   0.000000
     6  H    2.085565   2.864777   2.216446   2.852700   1.094492
     7  C    2.513111   2.515565   3.011262   3.521304   1.526634
     8  H    3.426200   3.550013   3.930188   4.110345   2.138594
     9  H    2.753641   2.399847   3.442430   3.568591   2.145065
    10  C    3.068255   2.951068   3.113552   4.578368   2.539691
    11  H    2.717876   2.429982   2.583235   4.450246   2.761122
    12  H    3.443353   3.602215   3.264385   4.934334   2.792787
    13  C    4.461387   4.134097   4.563626   5.895862   3.909546
    14  H    5.090786   4.888240   5.258401   6.345366   4.252059
    15  H    4.568906   4.037205   4.841238   5.874846   4.140771
    16  N    5.322893   4.984842   5.183428   6.950029   4.987180
    17  H    5.141003   4.688052   4.928769   6.857489   5.101306
    18  C    6.719596   6.316064   6.635695   8.284917   6.314129
    19  N    7.101504   6.513346   7.133898   8.597404   6.832111
    20  H    6.768921   6.148243   6.941492   8.124527   6.423446
    21  H    6.849847   6.185737   6.825390   8.411510   6.800629
    22  N    7.581872   7.211211   7.328573   9.265088   7.311451
    23  H    7.475138   7.232331   7.131831   9.175514   7.156784
    24  H    7.415139   6.978088   7.101386   9.160296   7.350762
    25  C    2.450821   3.004845   3.243863   1.837631   1.536798
    26  O    2.565939   3.103152   3.389540   0.983102   2.405541
    27  O    3.589714   4.080522   4.335345   2.961176   2.417396
                    6          7          8          9         10
     6  H    0.000000
     7  C    2.140222   0.000000
     8  H    2.482762   1.091039   0.000000
     9  H    3.041934   1.097400   1.751013   0.000000
    10  C    2.744562   1.522989   2.162061   2.161078   0.000000
    11  H    3.050147   2.159717   3.067612   2.531124   1.096489
    12  H    2.546894   2.157408   2.504924   3.067131   1.095000
    13  C    4.182738   2.549789   2.816180   2.776481   1.525065
    14  H    4.421009   2.831598   2.659481   3.159330   2.162415
    15  H    4.666889   2.718016   3.063290   2.483305   2.145507
    16  N    5.098323   3.814785   4.149541   4.102429   2.448595
    17  H    5.295400   4.077776   4.643498   4.242318   2.687724
    18  C    6.455145   5.008659   5.168982   5.164310   3.798762
    19  N    7.181155   5.466394   5.713628   5.325457   4.444188
    20  H    6.880928   4.990824   5.180510   4.712033   4.212529
    21  H    7.195993   5.553936   5.989459   5.354760   4.472404
    22  N    7.331910   6.148100   6.380963   6.392659   4.776345
    23  H    7.027897   6.106967   6.303630   6.519107   4.679446
    24  H    7.421055   6.286189   6.686689   6.467906   4.866009
    25  C    2.102080   2.541869   2.683756   2.809891   3.902238
    26  O    2.990572   3.595726   3.937297   3.642449   4.865014
    27  O    2.750217   2.963877   2.635519   3.251101   4.389593
                   11         12         13         14         15
    11  H    0.000000
    12  H    1.753590   0.000000
    13  C    2.138541   2.142371   0.000000
    14  H    3.051533   2.473559   1.094405   0.000000
    15  H    2.518951   3.047537   1.109493   1.759618   0.000000
    16  N    2.650294   2.684128   1.440220   2.049889   2.146733
    17  H    2.445611   3.065866   2.025188   2.916978   2.411789
    18  C    4.074504   4.031930   2.461995   2.628750   2.829154
    19  N    4.569979   4.967046   3.041308   3.356884   2.848876
    20  H    4.441017   4.881762   2.778041   3.016759   2.290776
    21  H    4.342228   5.063556   3.282792   3.884269   3.011756
    22  N    4.867761   4.814664   3.676432   3.919066   4.143501
    23  H    4.814849   4.488358   3.794847   3.968664   4.491970
    24  H    4.719183   4.985643   3.924178   4.419860   4.288378
    25  C    4.228010   4.170854   5.090066   5.246422   5.165256
    26  O    4.943472   5.196629   6.107507   6.401933   6.075769
    27  O    4.951226   4.584322   5.378045   5.291389   5.469247
                   16         17         18         19         20
    16  N    0.000000
    17  H    1.047580   0.000000
    18  C    1.471057   2.053097   0.000000
    19  N    2.415892   2.548053   1.453700   0.000000
    20  H    2.669804   2.891968   2.029037   1.011439   0.000000
    21  H    2.559277   2.244560   2.051932   1.048761   1.645105
    22  N    2.345554   2.572613   1.451044   2.303508   3.199317
    23  H    2.445949   2.788845   1.997976   3.178568   3.973387
    24  H    2.538655   2.318071   2.047567   2.494628   3.432656
    25  C    6.316826   6.499877   7.545347   7.977667   7.435396
    26  O    7.279589   7.311410   8.554641   8.883383   8.338383
    27  O    6.684761   7.031253   7.787419   8.255916   7.651744
                   21         22         23         24         25
    21  H    0.000000
    22  N    2.549609   0.000000
    23  H    3.417271   1.013425   0.000000
    24  H    2.286334   1.048053   1.623517   0.000000
    25  C    8.015637   8.651174   8.529869   8.752441   0.000000
    26  O    8.801553   9.621546   9.530420   9.612621   1.333654
    27  O    8.437559   8.968032   8.838511   9.199240   1.198683
                   26         27
    26  O    0.000000
    27  O    2.221985   0.000000
 Stoichiometry    C6H15N4O2(1-)
 Framework group  C1[X(C6H15N4O2)]
 Deg. of freedom    75
 Full point group                 C1      NOp   1
 Largest Abelian subgroup         C1      NOp   1
 Largest concise Abelian subgroup C1      NOp   1
                         Standard orientation:                         
 ---------------------------------------------------------------------
 Center     Atomic      Atomic             Coordinates (Angstroms)
 Number     Number       Type             X           Y           Z
 ---------------------------------------------------------------------
      1          7           0       -2.449383    1.662008    0.313204
      2          1           0       -1.892609    1.661305    1.159303
      3          1           0       -2.080511    2.396293   -0.272399
      4          1           0       -4.177405    1.141095    0.662409
      5          6           0       -2.348297    0.354437   -0.351188
      6          1           0       -2.341191    0.525582   -1.432193
      7          6           0       -1.094483   -0.434015    0.018823
      8          1           0       -1.158840   -1.420496   -0.442783
      9          1           0       -1.094442   -0.601231    1.103408
     10          6           0        0.189466    0.269139   -0.401350
     11          1           0        0.226255    1.274725    0.034232
     12          1           0        0.202205    0.404315   -1.487900
     13          6           0        1.454957   -0.475448    0.010894
     14          1           0        1.500114   -1.448647   -0.487671
     15          1           0        1.387195   -0.691995    1.096937
     16          7           0        2.637806    0.252497   -0.370159
     17          1           0        2.663477    1.140224    0.185453
     18          6           0        3.910974   -0.453575   -0.159172
     19          7           0        4.228708   -0.562197    1.255215
     20          1           0        3.545640   -1.153500    1.709953
     21          1           0        4.135143    0.382333    1.701320
     22          7           0        4.954105    0.389333   -0.713170
     23          1           0        4.682366    0.610354   -1.664136
     24          1           0        4.938140    1.316497   -0.224779
     25          6           0       -3.634041   -0.445454   -0.088925
     26          8           0       -4.586547    0.257815    0.524897
     27          8           0       -3.789157   -1.585171   -0.426306
 ---------------------------------------------------------------------
 Rotational constants (GHZ):           2.7669660           0.2562182           0.2486549
 Standard basis: def2TZVP (5D, 7F)
 There are   522 symmetry adapted cartesian basis functions of A   symmetry.
 There are   462 symmetry adapted basis functions of A   symmetry.
   462 basis functions,   732 primitive gaussians,   522 cartesian basis functions
    48 alpha electrons       48 beta electrons
       nuclear repulsion energy       711.3598041870 Hartrees.
 NAtoms=   27 NActive=   27 NUniq=   27 SFac= 1.00D+00 NAtFMM=   60 NAOKFM=F Big=F
 Integral buffers will be    131072 words long.
 Raffenetti 2 integral format.
 Two-electron integral symmetry is turned on.
 Nuclear repulsion after empirical dispersion term =      711.3422957082 Hartrees.
 One-electron integrals computed using PRISM.
   1 Symmetry operations used in ECPInt.
 ECPInt:  NShTT=   18528 NPrTT=   54924 LenC2=   16269 LenP2D=   36013.
 LDataN:  DoStor=T MaxTD1= 6 Len=  172
 NBasis=   462 RedAO= T EigKep=  7.71D-05  NBF=   462
 NBsUse=   462 1.00D-06 EigRej= -1.00D+00 NBFU=   462
 ExpMin= 9.52D-02 ExpMax= 2.70D+04 ExpMxC= 9.22D+02 IAcc=4 IRadAn=    299974 AccDes= 0.00D+00
 Harris functional with IExCor= 4639 and IRadAn=  299974 diagonalized for initial guess.
 HarFok:  IExCor= 4639 AccDes= 0.00D+00 IRadAn=    299974 IDoV= 1 UseB2=F ITyADJ=14
 ICtDFT=  3500011 ScaDFX=  1.000000  1.000000  1.000000  1.000000
 FoFCou: FMM=F IPFlag=           0 FMFlag=      100000 FMFlg1=           0
         NFxFlg=           0 DoJE=T BraDBF=F KetDBF=T FulRan=T
         wScrn=  0.000000 ICntrl=       500 IOpCl=  0 I1Cent=   200000004 NGrid=           0
         NMat0=    1 NMatS0=      1 NMatT0=    0 NMatD0=    1 NMtDS0=    0 NMtDT0=    0
 Petite list used in FoFCou.
 Requested convergence on RMS density matrix=1.00D-08 within 128 cycles.
 Requested convergence on MAX density matrix=1.00D-06.
 Requested convergence on             energy=1.00D-06.
 No special actions if energy rises.
 Integral accuracy reduced to 1.0D-05 until final iterations.
 Initial convergence to 1.0D-05 achieved.  Increase integral accuracy.
 SCF Done:  E(RwB97XD) =  -607.133076850     A.U. after   17 cycles
            NFock= 17  Conv=0.23D-08     -V/T= 2.0045

 **********************************************************************

            Population analysis using the SCF Density.

 **********************************************************************

 Orbital symmetries:
       Occupied  (A) (A) (A) (A) (A) (A) (A) (A) (A) (A) (A) (A)
                 (A) (A) (A) (A) (A) (A) (A) (A) (A) (A) (A) (A)
                 (A) (A) (A) (A) (A) (A) (A) (A) (A) (A) (A) (A)
                 (A) (A) (A) (A) (A) (A) (A) (A) (A) (A) (A) (A)
       Virtual   (A) (A) (A) (A) (A) (A) (A) (A) (A) (A) (A) (A)
                 (A) (A) (A) (A) (A) (A) (A) (A) (A) (A) (A) (A)
                 (A) (A) (A) (A) (A) (A) (A) (A) (A) (A) (A) (A)
                 (A) (A) (A) (A) (A) (A) (A) (A) (A) (A) (A) (A)
                 (A) (A) (A) (A) (A) (A) (A) (A) (A) (A) (A) (A)
                 (A) (A) (A) (A) (A) (A) (A) (A) (A) (A) (A) (A)
                 (A) (A) (A) (A) (A) (A) (A) (A) (A) (A) (A) (A)
                 (A) (A) (A) (A) (A) (A) (A) (A) (A) (A) (A) (A)
                 (A) (A) (A) (A) (A) (A) (A) (A) (A) (A) (A) (A)
                 (A) (A) (A) (A) (A) (A) (A) (A) (A) (A) (A) (A)
                 (A) (A) (A) (A) (A) (A) (A) (A) (A) (A) (A) (A)
                 (A) (A) (A) (A) (A) (A) (A) (A) (A) (A) (A) (A)
                 (A) (A) (A) (A) (A) (A) (A) (A) (A) (A) (A) (A)
                 (A) (A) (A) (A) (A) (A) (A) (A) (A) (A) (A) (A)
                 (A) (A) (A) (A) (A) (A) (A) (A) (A) (A) (A) (A)
                 (A) (A) (A) (A) (A) (A) (A) (A) (A) (A) (A) (A)
                 (A) (A) (A) (A) (A) (A) (A) (A) (A) (A) (A) (A)
                 (A) (A) (A) (A) (A) (A) (A) (A) (A) (A) (A) (A)
                 (A) (A) (A) (A) (A) (A) (A) (A) (A) (A) (A) (A)
                 (A) (A) (A) (A) (A) (A) (A) (A) (A) (A) (A) (A)
                 (A) (A) (A) (A) (A) (A) (A) (A) (A) (A) (A) (A)
                 (A) (A) (A) (A) (A) (A) (A) (A) (A) (A) (A) (A)
                 (A) (A) (A) (A) (A) (A) (A) (A) (A) (A) (A) (A)
                 (A) (A) (A) (A) (A) (A) (A) (A) (A) (A) (A) (A)
                 (A) (A) (A) (A) (A) (A) (A) (A) (A) (A) (A) (A)
                 (A) (A) (A) (A) (A) (A) (A) (A) (A) (A) (A) (A)
                 (A) (A) (A) (A) (A) (A) (A) (A) (A) (A) (A) (A)
                 (A) (A) (A) (A) (A) (A) (A) (A) (A) (A) (A) (A)
                 (A) (A) (A) (A) (A) (A) (A) (A) (A) (A) (A) (A)
                 (A) (A) (A) (A) (A) (A) (A) (A) (A) (A) (A) (A)
                 (A) (A) (A) (A) (A) (A) (A) (A) (A) (A) (A) (A)
                 (A) (A) (A) (A) (A) (A) (A) (A) (A) (A) (A) (A)
                 (A) (A) (A) (A) (A) (A) (A) (A) (A) (A) (A) (A)
                 (A) (A) (A) (A) (A) (A) (A) (A) (A) (A) (A) (A)
                 (A) (A) (A) (A) (A) (A)
 The electronic state is 1-A.
 Alpha  occ. eigenvalues --  -19.20420 -19.14474 -14.37146 -14.23892 -14.22556
 Alpha  occ. eigenvalues --  -14.22157 -10.32612 -10.25466 -10.19390 -10.16787
 Alpha  occ. eigenvalues --  -10.15859 -10.10000  -1.12371  -1.03768  -0.94110
 Alpha  occ. eigenvalues --   -0.85526  -0.80062  -0.77097  -0.73952  -0.71245
 Alpha  occ. eigenvalues --   -0.62975  -0.60593  -0.56965  -0.54593  -0.51430
 Alpha  occ. eigenvalues --   -0.48812  -0.47897  -0.45818  -0.45276  -0.43375
 Alpha  occ. eigenvalues --   -0.41517  -0.40406  -0.39048  -0.37170  -0.36306
 Alpha  occ. eigenvalues --   -0.35079  -0.33814  -0.32680  -0.31886  -0.31190
 Alpha  occ. eigenvalues --   -0.30499  -0.28738  -0.28185  -0.26193  -0.18630
 Alpha  occ. eigenvalues --   -0.15528  -0.11874  -0.03608
 Alpha virt. eigenvalues --    0.15792   0.18122   0.20611   0.22638   0.23401
 Alpha virt. eigenvalues --    0.25099   0.25764   0.26599   0.27628   0.28162
 Alpha virt. eigenvalues --    0.29999   0.30966   0.32238   0.32759   0.33092
 Alpha virt. eigenvalues --    0.35018   0.35178   0.35404   0.36260   0.37531
 Alpha virt. eigenvalues --    0.37814   0.39304   0.40676   0.42151   0.43952
 Alpha virt. eigenvalues --    0.43987   0.44785   0.45631   0.46326   0.47428
 Alpha virt. eigenvalues --    0.47670   0.48631   0.49469   0.50853   0.51400
 Alpha virt. eigenvalues --    0.52574   0.53502   0.53914   0.54829   0.55455
 Alpha virt. eigenvalues --    0.56136   0.56505   0.57405   0.57824   0.59367
 Alpha virt. eigenvalues --    0.59592   0.60763   0.61437   0.61873   0.62404
 Alpha virt. eigenvalues --    0.62768   0.63766   0.63973   0.64800   0.65270
 Alpha virt. eigenvalues --    0.65705   0.66168   0.66895   0.67741   0.69188
 Alpha virt. eigenvalues --    0.69539   0.70056   0.70900   0.71884   0.72054
 Alpha virt. eigenvalues --    0.72103   0.73366   0.73810   0.74464   0.75427
 Alpha virt. eigenvalues --    0.77265   0.78229   0.78690   0.79359   0.80685
 Alpha virt. eigenvalues --    0.82303   0.82395   0.83631   0.84475   0.85999
 Alpha virt. eigenvalues --    0.86161   0.88814   0.90534   0.91049   0.92797
 Alpha virt. eigenvalues --    0.94823   0.96362   0.97961   0.99586   1.00752
 Alpha virt. eigenvalues --    1.02687   1.03941   1.06092   1.06403   1.08084
 Alpha virt. eigenvalues --    1.09097   1.09936   1.10153   1.13010   1.15366
 Alpha virt. eigenvalues --    1.16971   1.17537   1.18763   1.21110   1.22745
 Alpha virt. eigenvalues --    1.23847   1.26244   1.28247   1.29955   1.30695
 Alpha virt. eigenvalues --    1.33304   1.34010   1.36411   1.38066   1.40303
 Alpha virt. eigenvalues --    1.41044   1.43127   1.46330   1.47355   1.48681
 Alpha virt. eigenvalues --    1.49444   1.50696   1.52385   1.52813   1.54005
 Alpha virt. eigenvalues --    1.54948   1.55879   1.57200   1.58199   1.60367
 Alpha virt. eigenvalues --    1.61382   1.63495   1.64818   1.65456   1.66931
 Alpha virt. eigenvalues --    1.67536   1.70151   1.70872   1.72522   1.73611
 Alpha virt. eigenvalues --    1.73861   1.75750   1.77764   1.78327   1.80121
 Alpha virt. eigenvalues --    1.80339   1.81919   1.82950   1.85196   1.86694
 Alpha virt. eigenvalues --    1.88758   1.89480   1.92957   1.94086   1.95345
 Alpha virt. eigenvalues --    1.95438   1.96890   1.98667   1.99224   2.00964
 Alpha virt. eigenvalues --    2.01828   2.04192   2.05275   2.06105   2.07986
 Alpha virt. eigenvalues --    2.09308   2.09957   2.10724   2.11473   2.13404
 Alpha virt. eigenvalues --    2.15603   2.15980   2.16604   2.18407   2.20617
 Alpha virt. eigenvalues --    2.21409   2.22180   2.22718   2.23582   2.25015
 Alpha virt. eigenvalues --    2.25872   2.26427   2.27097   2.28686   2.29305
 Alpha virt. eigenvalues --    2.31674   2.32832   2.33401   2.36859   2.37544
 Alpha virt. eigenvalues --    2.40139   2.40521   2.43644   2.44420   2.45351
 Alpha virt. eigenvalues --    2.46144   2.48358   2.49122   2.51646   2.51933
 Alpha virt. eigenvalues --    2.54756   2.56343   2.58172   2.58637   2.60030
 Alpha virt. eigenvalues --    2.60892   2.62325   2.64984   2.65627   2.67983
 Alpha virt. eigenvalues --    2.68783   2.68990   2.71102   2.72204   2.73689
 Alpha virt. eigenvalues --    2.75060   2.76211   2.77412   2.79161   2.80464
 Alpha virt. eigenvalues --    2.81854   2.82995   2.83743   2.84252   2.86211
 Alpha virt. eigenvalues --    2.88562   2.89453   2.90246   2.90700   2.91152
 Alpha virt. eigenvalues --    2.94349   2.94859   2.95698   2.96471   2.97305
 Alpha virt. eigenvalues --    2.99646   3.03883   3.05092   3.06564   3.08000
 Alpha virt. eigenvalues --    3.09154   3.10301   3.12217   3.13478   3.14638
 Alpha virt. eigenvalues --    3.17064   3.18877   3.21702   3.22463   3.25144
 Alpha virt. eigenvalues --    3.25921   3.26212   3.28725   3.29375   3.30293
 Alpha virt. eigenvalues --    3.31745   3.33368   3.38426   3.38909   3.40973
 Alpha virt. eigenvalues --    3.42035   3.42910   3.44513   3.45180   3.46311
 Alpha virt. eigenvalues --    3.46486   3.48801   3.49869   3.51160   3.51891
 Alpha virt. eigenvalues --    3.52515   3.53623   3.54070   3.56674   3.58830
 Alpha virt. eigenvalues --    3.60306   3.62251   3.63956   3.64829   3.65973
 Alpha virt. eigenvalues --    3.68092   3.69026   3.69583   3.70875   3.74056
 Alpha virt. eigenvalues --    3.75425   3.76523   3.77785   3.81415   3.82022
 Alpha virt. eigenvalues --    3.83520   3.85703   3.86311   3.88429   3.92268
 Alpha virt. eigenvalues --    3.93951   3.95073   3.99588   4.04145   4.04783
 Alpha virt. eigenvalues --    4.06019   4.08007   4.11159   4.12542   4.13985
 Alpha virt. eigenvalues --    4.14080   4.18018   4.20640   4.21090   4.21944
 Alpha virt. eigenvalues --    4.26371   4.31480   4.32746   4.36596   4.37830
 Alpha virt. eigenvalues --    4.40526   4.43747   4.48627   4.51388   4.53644
 Alpha virt. eigenvalues --    4.54257   4.56825   4.58726   4.59694   4.60582
 Alpha virt. eigenvalues --    4.64104   4.66232   4.70264   4.74347   4.74766
 Alpha virt. eigenvalues --    4.77488   4.81546   4.84606   4.88373   4.89747
 Alpha virt. eigenvalues --    4.91609   4.93534   4.97634   4.98729   4.99621
 Alpha virt. eigenvalues --    5.00916   5.01929   5.07489   5.09522   5.10280
 Alpha virt. eigenvalues --    5.11844   5.12879   5.16861   5.19049   5.20737
 Alpha virt. eigenvalues --    5.24704   5.26058   5.27554   5.30394   5.30511
 Alpha virt. eigenvalues --    5.34041   5.35058   5.35360   5.38125   5.38617
 Alpha virt. eigenvalues --    5.41030   5.42160   5.45802   5.46674   5.48767
 Alpha virt. eigenvalues --    5.49611   5.52974   5.56897   5.59663   5.61279
 Alpha virt. eigenvalues --    5.63846   5.68275   5.70218   5.72304   5.72982
 Alpha virt. eigenvalues --    5.74493   5.76335   5.80438   5.86494   5.87753
 Alpha virt. eigenvalues --    5.93059   5.94398   5.96442   6.01194   6.10710
 Alpha virt. eigenvalues --    6.16547   6.20270   6.25859   6.35951   6.36442
 Alpha virt. eigenvalues --    6.53631   6.58951   6.63521   6.67848   6.89957
 Alpha virt. eigenvalues --    6.90134   6.97030   7.00755   7.19117   7.30569
 Alpha virt. eigenvalues --    7.34111   7.46542  22.62022  22.71194  22.73366
 Alpha virt. eigenvalues --   22.76952  22.80045  23.51682  32.20084  32.22229
 Alpha virt. eigenvalues --   32.30786  32.74934  44.02112  44.08742
          Condensed to atoms (all electrons):
               1          2          3          4          5          6
     1  N    6.771187   0.368695   0.372491   0.056220   0.142719  -0.044798
     2  H    0.368695   0.441793  -0.028764  -0.001653  -0.033593   0.005966
     3  H    0.372491  -0.028764   0.442049  -0.000773  -0.019357  -0.010993
     4  H    0.056220  -0.001653  -0.000773   0.358832  -0.017515   0.001364
     5  C    0.142719  -0.033593  -0.019357  -0.017515   5.404270   0.404292
     6  H   -0.044798   0.005966  -0.010993   0.001364   0.404292   0.578481
     7  C   -0.050494  -0.005899  -0.002922   0.003811   0.223524  -0.035747
     8  H    0.008512   0.000338  -0.000453  -0.000234  -0.044729  -0.003123
     9  H   -0.010422   0.004962  -0.000162  -0.000098  -0.024992   0.008548
    10  C    0.010110  -0.000158   0.001700  -0.000245  -0.041308  -0.003581
    11  H    0.017694   0.003244  -0.000419   0.000006  -0.024017  -0.000813
    12  H   -0.001742   0.000350   0.000413  -0.000046   0.006002   0.003026
    13  C    0.001904  -0.000501   0.000176   0.000005  -0.014465   0.000728
    14  H   -0.000105   0.000051  -0.000006   0.000000   0.001675  -0.000012
    15  H    0.000065  -0.000005   0.000048  -0.000002   0.002217  -0.000246
    16  N    0.000117   0.000006   0.000008  -0.000000  -0.000982  -0.000071
    17  H   -0.000183   0.000109   0.000004  -0.000001   0.001144  -0.000056
    18  C    0.000017  -0.000009   0.000000  -0.000000  -0.000156   0.000004
    19  N   -0.000000   0.000002   0.000000   0.000000   0.000025  -0.000001
    20  H   -0.000000   0.000000  -0.000000   0.000000   0.000006   0.000000
    21  H   -0.000001   0.000005   0.000000  -0.000000   0.000027  -0.000001
    22  N   -0.000000   0.000000   0.000000  -0.000000  -0.000002  -0.000000
    23  H   -0.000000  -0.000000   0.000000   0.000000   0.000001  -0.000000
    24  H   -0.000000   0.000000   0.000000  -0.000000   0.000007  -0.000000
    25  C   -0.006136  -0.000625   0.000447  -0.034422   0.233445  -0.014170
    26  O   -0.045385   0.000868   0.000307   0.288908  -0.123788   0.001699
    27  O    0.005318  -0.000022  -0.000214   0.005001  -0.131375   0.002426
               7          8          9         10         11         12
     1  N   -0.050494   0.008512  -0.010422   0.010110   0.017694  -0.001742
     2  H   -0.005899   0.000338   0.004962  -0.000158   0.003244   0.000350
     3  H   -0.002922  -0.000453  -0.000162   0.001700  -0.000419   0.000413
     4  H    0.003811  -0.000234  -0.000098  -0.000245   0.000006  -0.000046
     5  C    0.223524  -0.044729  -0.024992  -0.041308  -0.024017   0.006002
     6  H   -0.035747  -0.003123   0.008548  -0.003581  -0.000813   0.003026
     7  C    5.319284   0.396175   0.389726   0.143331  -0.057194  -0.019887
     8  H    0.396175   0.532393  -0.016375  -0.017472   0.007854  -0.006890
     9  H    0.389726  -0.016375   0.599590  -0.058394  -0.005991   0.008367
    10  C    0.143331  -0.017472  -0.058394   5.298423   0.411708   0.355401
    11  H   -0.057194   0.007854  -0.005991   0.411708   0.667194  -0.042560
    12  H   -0.019887  -0.006890   0.008367   0.355401  -0.042560   0.625070
    13  C   -0.057546   0.005350   0.006290   0.144957  -0.032401  -0.025388
    14  H   -0.027749   0.003428  -0.001397   0.045394   0.012314  -0.014101
    15  H    0.049268  -0.002750   0.004873  -0.095036  -0.014887   0.018659
    16  N    0.011367   0.000134   0.000221  -0.099309  -0.005359   0.018806
    17  H   -0.002434  -0.000157  -0.000382   0.039198   0.019082  -0.000446
    18  C   -0.003014  -0.000090   0.000166  -0.006169  -0.001818  -0.000127
    19  N    0.001547  -0.000005  -0.000140   0.006713  -0.000284   0.000202
    20  H   -0.000153   0.000013  -0.000042   0.001497   0.000060  -0.000128
    21  H    0.000046  -0.000014  -0.000054   0.005617   0.000973   0.000082
    22  N   -0.000112  -0.000000  -0.000001  -0.001157  -0.000046  -0.000133
    23  H    0.000075  -0.000002   0.000001  -0.000370  -0.000078   0.000365
    24  H    0.000001  -0.000003  -0.000001   0.002450   0.000310   0.000225
    25  C   -0.018197  -0.002258  -0.002196  -0.004078  -0.000423   0.000695
    26  O   -0.001460   0.000947   0.002265  -0.000663  -0.000009   0.000012
    27  O    0.011582   0.012345   0.000308  -0.001352  -0.000079   0.000025
              13         14         15         16         17         18
     1  N    0.001904  -0.000105   0.000065   0.000117  -0.000183   0.000017
     2  H   -0.000501   0.000051  -0.000005   0.000006   0.000109  -0.000009
     3  H    0.000176  -0.000006   0.000048   0.000008   0.000004   0.000000
     4  H    0.000005   0.000000  -0.000002  -0.000000  -0.000001  -0.000000
     5  C   -0.014465   0.001675   0.002217  -0.000982   0.001144  -0.000156
     6  H    0.000728  -0.000012  -0.000246  -0.000071  -0.000056   0.000004
     7  C   -0.057546  -0.027749   0.049268   0.011367  -0.002434  -0.003014
     8  H    0.005350   0.003428  -0.002750   0.000134  -0.000157  -0.000090
     9  H    0.006290  -0.001397   0.004873   0.000221  -0.000382   0.000166
    10  C    0.144957   0.045394  -0.095036  -0.099309   0.039198  -0.006169
    11  H   -0.032401   0.012314  -0.014887  -0.005359   0.019082  -0.001818
    12  H   -0.025388  -0.014101   0.018659   0.018806  -0.000446  -0.000127
    13  C    5.207518   0.281912   0.344274   0.437173  -0.165934  -0.067952
    14  H    0.281912   0.678014  -0.070390  -0.055613   0.043832   0.035444
    15  H    0.344274  -0.070390   0.865500  -0.103625  -0.005638  -0.033597
    16  N    0.437173  -0.055613  -0.103625   6.816771   0.147501   0.521380
    17  H   -0.165934   0.043832  -0.005638   0.147501   1.009233  -0.281077
    18  C   -0.067952   0.035444  -0.033597   0.521380  -0.281077   5.699007
    19  N    0.015043  -0.002932   0.040701  -0.160786  -0.016311   0.350682
    20  H    0.005209   0.000958  -0.002432   0.006318  -0.000584  -0.074602
    21  H   -0.016009   0.008339   0.006654  -0.044132   0.127852  -0.274354
    22  N    0.007001   0.003282  -0.000264  -0.176030   0.026070   0.412229
    23  H    0.001059  -0.000550   0.000524   0.013386   0.001477  -0.076110
    24  H   -0.007807   0.002689   0.001201  -0.044758   0.103403  -0.249256
    25  C   -0.000304  -0.000138   0.000417  -0.000002   0.000008  -0.000003
    26  O    0.000004  -0.000001  -0.000001  -0.000000  -0.000000   0.000000
    27  O    0.000197  -0.000029  -0.000004  -0.000000   0.000000   0.000000
              19         20         21         22         23         24
     1  N   -0.000000  -0.000000  -0.000001  -0.000000  -0.000000  -0.000000
     2  H    0.000002   0.000000   0.000005   0.000000  -0.000000   0.000000
     3  H    0.000000  -0.000000   0.000000   0.000000   0.000000   0.000000
     4  H    0.000000   0.000000  -0.000000  -0.000000   0.000000  -0.000000
     5  C    0.000025   0.000006   0.000027  -0.000002   0.000001   0.000007
     6  H   -0.000001   0.000000  -0.000001  -0.000000  -0.000000  -0.000000
     7  C    0.001547  -0.000153   0.000046  -0.000112   0.000075   0.000001
     8  H   -0.000005   0.000013  -0.000014  -0.000000  -0.000002  -0.000003
     9  H   -0.000140  -0.000042  -0.000054  -0.000001   0.000001  -0.000001
    10  C    0.006713   0.001497   0.005617  -0.001157  -0.000370   0.002450
    11  H   -0.000284   0.000060   0.000973  -0.000046  -0.000078   0.000310
    12  H    0.000202  -0.000128   0.000082  -0.000133   0.000365   0.000225
    13  C    0.015043   0.005209  -0.016009   0.007001   0.001059  -0.007807
    14  H   -0.002932   0.000958   0.008339   0.003282  -0.000550   0.002689
    15  H    0.040701  -0.002432   0.006654  -0.000264   0.000524   0.001201
    16  N   -0.160786   0.006318  -0.044132  -0.176030   0.013386  -0.044758
    17  H   -0.016311  -0.000584   0.127852   0.026070   0.001477   0.103403
    18  C    0.350682  -0.074602  -0.274354   0.412229  -0.076110  -0.249256
    19  N    6.737036   0.390873   0.239229  -0.093259   0.013154  -0.025798
    20  H    0.390873   0.548854  -0.054986   0.009805  -0.001458  -0.001626
    21  H    0.239229  -0.054986   0.902049  -0.008077  -0.000353   0.094466
    22  N   -0.093259   0.009805  -0.008077   6.687829   0.367423   0.271472
    23  H    0.013154  -0.001458  -0.000353   0.367423   0.558811  -0.039804
    24  H   -0.025798  -0.001626   0.094466   0.271472  -0.039804   0.852281
    25  C    0.000000  -0.000000   0.000000  -0.000000   0.000000   0.000000
    26  O   -0.000000  -0.000000   0.000000  -0.000000  -0.000000   0.000000
    27  O    0.000000  -0.000000   0.000000   0.000000   0.000000   0.000000
              25         26         27
     1  N   -0.006136  -0.045385   0.005318
     2  H   -0.000625   0.000868  -0.000022
     3  H    0.000447   0.000307  -0.000214
     4  H   -0.034422   0.288908   0.005001
     5  C    0.233445  -0.123788  -0.131375
     6  H   -0.014170   0.001699   0.002426
     7  C   -0.018197  -0.001460   0.011582
     8  H   -0.002258   0.000947   0.012345
     9  H   -0.002196   0.002265   0.000308
    10  C   -0.004078  -0.000663  -0.001352
    11  H   -0.000423  -0.000009  -0.000079
    12  H    0.000695   0.000012   0.000025
    13  C   -0.000304   0.000004   0.000197
    14  H   -0.000138  -0.000001  -0.000029
    15  H    0.000417  -0.000001  -0.000004
    16  N   -0.000002  -0.000000  -0.000000
    17  H    0.000008  -0.000000   0.000000
    18  C   -0.000003   0.000000   0.000000
    19  N    0.000000  -0.000000   0.000000
    20  H   -0.000000  -0.000000  -0.000000
    21  H    0.000000   0.000000   0.000000
    22  N   -0.000000  -0.000000   0.000000
    23  H    0.000000  -0.000000   0.000000
    24  H    0.000000   0.000000   0.000000
    25  C    4.436037   0.392310   0.700652
    26  O    0.392310   7.953851  -0.085405
    27  O    0.700652  -0.085405   7.840557
 Mulliken charges:
               1
     1  N   -0.595782
     2  H    0.244838
     3  H    0.246419
     4  H    0.340842
     5  C    0.056926
     6  H    0.107080
     7  C   -0.266929
     8  H    0.127068
     9  H    0.095330
    10  C   -0.137208
    11  H    0.045939
    12  H    0.073746
    13  C   -0.070496
    14  H    0.055691
    15  H   -0.005526
    16  N   -0.282519
    17  H   -0.045711
    18  C    0.049404
    19  N   -0.495691
    20  H    0.172416
    21  H    0.012643
    22  N   -0.506030
    23  H    0.162450
    24  H    0.040547
    25  C    0.318941
    26  O   -0.384459
    27  O   -0.359930
 Sum of Mulliken charges =  -1.00000
 Mulliken charges with hydrogens summed into heavy atoms:
               1
     1  N   -0.104526
     5  C    0.164006
     7  C   -0.044531
    10  C   -0.017523
    13  C   -0.020331
    16  N   -0.328230
    18  C    0.049404
    19  N   -0.310631
    22  N   -0.303033
    25  C    0.318941
    26  O   -0.043617
    27  O   -0.359930
 Electronic spatial extent (au):  <R**2>=           4291.0524
 Charge=             -1.0000 electrons
 Dipole moment (field-independent basis, Debye):
    X=            -14.0997    Y=              5.7932    Z=              0.8587  Tot=             15.2676
 Quadrupole moment (field-independent basis, Debye-Ang):
   XX=           -197.7504   YY=            -83.4091   ZZ=            -78.6394
   XY=             -2.8449   XZ=              0.4226   YZ=             -1.6546
 Traceless Quadrupole moment (field-independent basis, Debye-Ang):
   XX=            -77.8174   YY=             36.5239   ZZ=             41.2936
   XY=             -2.8449   XZ=              0.4226   YZ=             -1.6546
 Octapole moment (field-independent basis, Debye-Ang**2):
  XXX=           -355.6884  YYY=             21.0071  ZZZ=             -3.2025  XYY=            -19.5772
  XXY=             94.2125  XXZ=             -8.4360  XZZ=            -33.9382  YZZ=              5.0900
  YYZ=              3.7554  XYZ=              4.0821
 Hexadecapole moment (field-independent basis, Debye-Ang**3):
 XXXX=          -8080.3153 YYYY=           -422.6398 ZZZZ=           -267.0680 XXXY=             53.2845
 XXXZ=            -25.9586 YYYX=            -25.6660 YYYZ=            -10.5433 ZZZX=            -33.9263
 ZZZY=             -0.7787 XXYY=          -1041.8026 XXZZ=           -948.6842 YYZZ=           -113.6664
 XXYZ=            -13.7994 YYXZ=             -7.0934 ZZXY=              3.8273
 N-N= 7.113422957082D+02 E-N=-2.854486628187D+03  KE= 6.044165154835D+02
 Unable to Open any file for archive entry.
 1\1\GINC-WATER\SP\RwB97XD\def2TZVP\C6H15N4O2(1-)\DAYALYZ\11-Jun-2025\0
 \\# wB97xD/Def2TZVP SCF(Tight) Int(Grid=299974)\\Displacement_0.01\\-1
 ,1\N,0,-2.449391,1.662106,0.312579\H,0,-1.892601,1.661727,1.158668\H,0
 ,-2.080546,2.396181,-0.273303\H,0,-4.177396,1.141286,0.662011\C,0,-2.3
 48291,0.354291,-0.351331\H,0,-2.34121,0.525036,-1.432399\C,0,-1.094454
 ,-0.433998,0.018947\H,0,-1.158799,-1.420651,-0.442292\H,0,-1.094388,-0
 .600813,1.103594\C,0,0.189472,0.269027,-0.401511\H,0,0.226249,1.274775
 ,0.033698\H,0,0.202187,0.403801,-1.488111\C,0,1.454987,-0.475381,0.010
 983\H,0,1.500154,-1.448764,-0.487222\H,0,1.387251,-0.691528,1.097108\N
 ,0,2.637813,0.252447,-0.370362\H,0,2.663477,1.14038,0.184921\C,0,3.911
 ,-0.45352,-0.159139\N,0,4.228764,-0.561612,1.255282\H,0,3.545717,-1.15
 2761,1.710252\H,0,4.135188,0.383081,1.701039\N,0,4.954103,0.389204,-0.
 713469\H,0,4.682341,0.609868,-1.664512\H,0,4.938128,1.316549,-0.225421
 \C,0,-3.634014,-0.44553,-0.088747\O,0,-4.586522,0.257947,0.524834\O,0,
 -3.789113,-1.585375,-0.425703\\Version=ES64L-G16RevC.01\State=1-A\HF=-
 607.1330768\RMSD=2.255e-09\Dipole=-5.5472922,2.2792483,0.3370926\Quadr
 upole=-57.8552512,27.1536077,30.7016435,-2.1167467,0.3167608,-1.228774
 4\PG=C01 [X(C6H15N4O2)]\\@
 The archive entry for this job was punched.


 I am not a vegetarian because I love animals;
 I am a vegetarian because I hate plants.
                               -- A. Whitney Brown
 Job cpu time:       0 days  0 hours 49 minutes 21.5 seconds.
 Elapsed time:       0 days  0 hours 49 minutes 27.9 seconds.
 File lengths (MBytes):  RWF=    118 Int=      0 D2E=      0 Chk=     13 Scr=      1
 Normal termination of Gaussian 16 at Wed Jun 11 05:31:32 2025.
