 Entering Gaussian System, Link 0=g16
 Initial command:
 /opt/gaussian/g16/l1.exe "/scratch/Gau-258232.inp" -scrdir="/scratch/"
 Entering Link 1 = /opt/gaussian/g16/l1.exe PID=    258233.
  
 Copyright (c) 1988-2019, Gaussian, Inc.  All Rights Reserved.
  
 This is part of the Gaussian(R) 16 program.  It is based on
 the Gaussian(R) 09 system (copyright 2009, Gaussian, Inc.),
 the Gaussian(R) 03 system (copyright 2003, Gaussian, Inc.),
 the Gaussian(R) 98 system (copyright 1998, Gaussian, Inc.),
 the Gaussian(R) 94 system (copyright 1995, Gaussian, Inc.),
 the Gaussian 92(TM) system (copyright 1992, Gaussian, Inc.),
 the Gaussian 90(TM) system (copyright 1990, Gaussian, Inc.),
 the Gaussian 88(TM) system (copyright 1988, Gaussian, Inc.),
 the Gaussian 86(TM) system (copyright 1986, Carnegie Mellon
 University), and the Gaussian 82(TM) system (copyright 1983,
 Carnegie Mellon University). Gaussian is a federally registered
 trademark of Gaussian, Inc.
  
 This software contains proprietary and confidential information,
 including trade secrets, belonging to Gaussian, Inc.
  
 This software is provided under written license and may be
 used, copied, transmitted, or stored only in accord with that
 written license.
  
 The following legend is applicable only to US Government
 contracts under FAR:
  
                    RESTRICTED RIGHTS LEGEND
  
 Use, reproduction and disclosure by the US Government is
 subject to restrictions as set forth in subparagraphs (a)
 and (c) of the Commercial Computer Software - Restricted
 Rights clause in FAR 52.227-19.
  
 Gaussian, Inc.
 340 Quinnipiac St., Bldg. 40, Wallingford CT 06492
  
  
 ---------------------------------------------------------------
 Warning -- This program may not be used in any manner that
 competes with the business of Gaussian, Inc. or will provide
 assistance to any competitor of Gaussian, Inc.  The licensee
 of this program is prohibited from giving any competitor of
 Gaussian, Inc. access to this program.  By using this program,
 the user acknowledges that Gaussian, Inc. is engaged in the
 business of creating and licensing software in the field of
 computational chemistry and represents and warrants to the
 licensee that it is not a competitor of Gaussian, Inc. and that
 it will not use this program in any manner prohibited above.
 ---------------------------------------------------------------
  

 Cite this work as:
 Gaussian 16, Revision C.01,
 M. J. Frisch, G. W. Trucks, H. B. Schlegel, G. E. Scuseria, 
 M. A. Robb, J. R. Cheeseman, G. Scalmani, V. Barone, 
 G. A. Petersson, H. Nakatsuji, X. Li, M. Caricato, A. V. Marenich, 
 J. Bloino, B. G. Janesko, R. Gomperts, B. Mennucci, H. P. Hratchian, 
 J. V. Ortiz, A. F. Izmaylov, J. L. Sonnenberg, D. Williams-Young, 
 F. Ding, F. Lipparini, F. Egidi, J. Goings, B. Peng, A. Petrone, 
 T. Henderson, D. Ranasinghe, V. G. Zakrzewski, J. Gao, N. Rega, 
 G. Zheng, W. Liang, M. Hada, M. Ehara, K. Toyota, R. Fukuda, 
 J. Hasegawa, M. Ishida, T. Nakajima, Y. Honda, O. Kitao, H. Nakai, 
 T. Vreven, K. Throssell, J. A. Montgomery, Jr., J. E. Peralta, 
 F. Ogliaro, M. J. Bearpark, J. J. Heyd, E. N. Brothers, K. N. Kudin, 
 V. N. Staroverov, T. A. Keith, R. Kobayashi, J. Normand, 
 K. Raghavachari, A. P. Rendell, J. C. Burant, S. S. Iyengar, 
 J. Tomasi, M. Cossi, J. M. Millam, M. Klene, C. Adamo, R. Cammi, 
 J. W. Ochterski, R. L. Martin, K. Morokuma, O. Farkas, 
 J. B. Foresman, and D. J. Fox, Gaussian, Inc., Wallingford CT, 2019.
 
 ******************************************
 Gaussian 16:  ES64L-G16RevC.01  3-Jul-2019
                11-Jun-2025 
 ******************************************
 ---------------------------------------------
 # wB97xD/Def2TZVP SCF(Tight) Int(Grid=299974)
 ---------------------------------------------
 1/38=1,172=1/1;
 2/12=2,17=6,18=5,40=1/2;
 3/5=44,7=101,11=2,25=1,30=1,74=-58,75=299974/1,2,3;
 4//1;
 5/5=2,32=2,38=5/2;
 6/7=2,8=2,9=2,10=2,28=1/1;
 99/5=1,9=1/99;
 -----------------
 Displacement_0.02
 -----------------
 Symbolic Z-matrix:
 Charge = -1 Multiplicity = 1
 N                    -2.44939   1.66211   0.31258 
 H                    -1.8926    1.66173   1.15867 
 H                    -2.08055   2.39618  -0.2733 
 H                    -4.1774    1.14129   0.66201 
 C                    -2.34829   0.35429  -0.35133 
 H                    -2.34121   0.52504  -1.4324 
 C                    -1.09445  -0.434     0.01895 
 H                    -1.1588   -1.42065  -0.44229 
 H                    -1.09439  -0.60081   1.10359 
 C                     0.18947   0.26903  -0.40151 
 H                     0.22625   1.27477   0.0337 
 H                     0.20219   0.4038   -1.48811 
 C                     1.45499  -0.47538   0.01098 
 H                     1.50015  -1.44886  -0.48712 
 H                     1.38715  -0.69163   1.09711 
 N                     2.63781   0.25245  -0.37036 
 H                     2.66348   1.14038   0.18502 
 C                     3.9109   -0.45352  -0.15904 
 N                     4.22866  -0.56151   1.25578 
 H                     3.54612  -1.15636   1.70655 
 H                     4.13769   0.38508   1.69664 
 N                     4.954     0.3888   -0.71327 
 H                     4.68314   0.61437  -1.66361 
 H                     4.93843   1.31905  -0.22942 
 C                    -3.63401  -0.44553  -0.08875 
 O                    -4.58652   0.25795   0.52483 
 O                    -3.78911  -1.58538  -0.4257 
 
                          Input orientation:                          
 ---------------------------------------------------------------------
 Center     Atomic      Atomic             Coordinates (Angstroms)
 Number     Number       Type             X           Y           Z
 ---------------------------------------------------------------------
      1          7           0       -2.449391    1.662106    0.312579
      2          1           0       -1.892601    1.661727    1.158668
      3          1           0       -2.080546    2.396181   -0.273303
      4          1           0       -4.177396    1.141286    0.662011
      5          6           0       -2.348291    0.354291   -0.351331
      6          1           0       -2.341210    0.525036   -1.432399
      7          6           0       -1.094454   -0.433998    0.018947
      8          1           0       -1.158799   -1.420651   -0.442292
      9          1           0       -1.094388   -0.600813    1.103594
     10          6           0        0.189472    0.269027   -0.401511
     11          1           0        0.226249    1.274775    0.033698
     12          1           0        0.202187    0.403801   -1.488111
     13          6           0        1.454987   -0.475381    0.010983
     14          1           0        1.500154   -1.448864   -0.487122
     15          1           0        1.387151   -0.691628    1.097108
     16          7           0        2.637813    0.252447   -0.370362
     17          1           0        2.663477    1.140380    0.185021
     18          6           0        3.910900   -0.453520   -0.159039
     19          7           0        4.228664   -0.561512    1.255782
     20          1           0        3.546117   -1.156361    1.706552
     21          1           0        4.137688    0.385081    1.696639
     22          7           0        4.954003    0.388804   -0.713269
     23          1           0        4.683141    0.614368   -1.663612
     24          1           0        4.938428    1.319049   -0.229421
     25          6           0       -3.634014   -0.445530   -0.088747
     26          8           0       -4.586522    0.257947    0.524834
     27          8           0       -3.789113   -1.585375   -0.425703
 ---------------------------------------------------------------------
                    Distance matrix (angstroms):
                    1          2          3          4          5
     1  N    0.000000
     2  H    1.012858   0.000000
     3  H    1.009044   1.620274   0.000000
     4  H    1.838303   2.395374   2.616554   0.000000
     5  C    1.470162   2.048692   2.060847   2.234244   0.000000
     6  H    2.085565   2.864777   2.216446   2.852700   1.094492
     7  C    2.513111   2.515565   3.011262   3.521304   1.526634
     8  H    3.426200   3.550013   3.930188   4.110345   2.138594
     9  H    2.753641   2.399847   3.442430   3.568591   2.145065
    10  C    3.068255   2.951068   3.113552   4.578368   2.539691
    11  H    2.717876   2.429982   2.583235   4.450246   2.761122
    12  H    3.443353   3.602215   3.264385   4.934334   2.792787
    13  C    4.461387   4.134097   4.563626   5.895862   3.909546
    14  H    5.090831   4.888270   5.258470   6.345389   4.252098
    15  H    4.568873   4.037183   4.841231   5.874782   4.140706
    16  N    5.322893   4.984842   5.183428   6.950029   4.987180
    17  H    5.141001   4.688031   4.928778   6.857482   5.101316
    18  C    6.719494   6.315952   6.635607   8.284809   6.314033
    19  N    7.101445   6.513226   7.133875   8.597321   6.832119
    20  H    6.770010   6.149915   6.942602   8.125448   6.423472
    21  H    6.850987   6.187376   6.825806   8.413259   6.801695
    22  N    7.581814   7.211135   7.328575   9.264992   7.311340
    23  H    7.475032   7.232054   7.131289   9.175799   7.157566
    24  H    7.415613   6.979053   7.101277   9.161031   7.351319
    25  C    2.450821   3.004845   3.243863   1.837631   1.536798
    26  O    2.565939   3.103152   3.389540   0.983102   2.405541
    27  O    3.589714   4.080522   4.335345   2.961176   2.417396
                    6          7          8          9         10
     6  H    0.000000
     7  C    2.140222   0.000000
     8  H    2.482762   1.091039   0.000000
     9  H    3.041934   1.097400   1.751013   0.000000
    10  C    2.744562   1.522989   2.162061   2.161078   0.000000
    11  H    3.050147   2.159717   3.067612   2.531124   1.096489
    12  H    2.546894   2.157408   2.504924   3.067131   1.095000
    13  C    4.182738   2.549789   2.816180   2.776481   1.525065
    14  H    4.421075   2.831616   2.659481   3.159306   2.162491
    15  H    4.666835   2.717934   3.063183   2.483209   2.145496
    16  N    5.098323   3.814785   4.149541   4.102429   2.448595
    17  H    5.295431   4.077780   4.643511   4.242296   2.687746
    18  C    6.455068   5.008556   5.168890   5.164189   3.798670
    19  N    7.181236   5.466407   5.713697   5.325372   4.444265
    20  H    6.880460   4.990463   5.179152   4.712375   4.212212
    21  H    7.196290   5.555254   5.990698   5.357080   4.472596
    22  N    7.331837   6.147924   6.380745   6.392446   4.776222
    23  H    7.028723   6.108247   6.305647   6.520271   4.680301
    24  H    7.420966   6.287331   6.687858   6.469750   4.866697
    25  C    2.102080   2.541869   2.683756   2.809891   3.902238
    26  O    2.990572   3.595726   3.937297   3.642449   4.865014
    27  O    2.750217   2.963877   2.635519   3.251101   4.389593
                   11         12         13         14         15
    11  H    0.000000
    12  H    1.753590   0.000000
    13  C    2.138541   2.142371   0.000000
    14  H    3.051606   2.473674   1.094449   0.000000
    15  H    2.518983   3.047534   1.109519   1.759534   0.000000
    16  N    2.650294   2.684128   1.440220   2.049966   2.146835
    17  H    2.445617   3.065920   2.025197   2.917067   2.411880
    18  C    4.074408   4.031871   2.461888   2.628696   2.829118
    19  N    4.569985   4.967222   3.041419   3.357063   2.848913
    20  H    4.441890   4.880763   2.776961   3.013922   2.290968
    21  H    4.342382   5.062722   3.283095   3.884424   3.014000
    22  N    4.867706   4.814599   3.676203   3.918831   4.143336
    23  H    4.814653   4.489330   3.796419   3.971456   4.493412
    24  H    4.719727   4.985374   3.925829   4.421479   4.291162
    25  C    4.228010   4.170854   5.090066   5.246433   5.165164
    26  O    4.943472   5.196629   6.107507   6.401944   6.075686
    27  O    4.951226   4.584322   5.378045   5.291385   5.469136
                   16         17         18         19         20
    16  N    0.000000
    17  H    1.047633   0.000000
    18  C    1.470985   2.053036   0.000000
    19  N    2.416129   2.548093   1.454082   0.000000
    20  H    2.668956   2.892945   2.026692   1.011390   0.000000
    21  H    2.557286   2.242490   2.048957   1.048175   1.651090
    22  N    2.345403   2.572606   1.450774   2.303558   3.197688
    23  H    2.446804   2.788041   2.000120   3.179954   3.973199
    24  H    2.539751   2.319286   2.050065   2.499220   3.437176
    25  C    6.316826   6.499881   7.545246   7.977651   7.435231
    26  O    7.279589   7.311405   8.554534   8.883316   8.338857
    27  O    6.684761   7.031262   7.787323   8.255933   7.650893
                   21         22         23         24         25
    21  H    0.000000
    22  N    2.544414   0.000000
    23  H    3.411946   1.013606   0.000000
    24  H    2.285429   1.048669   1.618225   0.000000
    25  C    8.017286   8.651022   8.531040   8.753302   0.000000
    26  O    8.803473   9.621416   9.531159   9.613507   1.333654
    27  O    8.439266   8.967840   8.840270   9.200227   1.198683
                   26         27
    26  O    0.000000
    27  O    2.221985   0.000000
 Stoichiometry    C6H15N4O2(1-)
 Framework group  C1[X(C6H15N4O2)]
 Deg. of freedom    75
 Full point group                 C1      NOp   1
 Largest Abelian subgroup         C1      NOp   1
 Largest concise Abelian subgroup C1      NOp   1
                         Standard orientation:                         
 ---------------------------------------------------------------------
 Center     Atomic      Atomic             Coordinates (Angstroms)
 Number     Number       Type             X           Y           Z
 ---------------------------------------------------------------------
      1          7           0       -2.449374    1.661911    0.313827
      2          1           0       -1.892618    1.660884    1.159937
      3          1           0       -2.080476    2.396403   -0.271498
      4          1           0       -4.177415    1.140904    0.662806
      5          6           0       -2.348302    0.354583   -0.351046
      6          1           0       -2.341172    0.526126   -1.431987
      7          6           0       -1.094513   -0.434032    0.018699
      8          1           0       -1.158880   -1.420341   -0.443272
      9          1           0       -1.094496   -0.601648    1.103222
     10          6           0        0.189459    0.269251   -0.401189
     11          1           0        0.226261    1.274675    0.034765
     12          1           0        0.202222    0.404827   -1.487688
     13          6           0        1.454927   -0.475515    0.010805
     14          1           0        1.500073   -1.448631   -0.488018
     15          1           0        1.387039   -0.692561    1.096767
     16          7           0        2.637798    0.252546   -0.369956
     17          1           0        2.663477    1.140067    0.186084
     18          6           0        3.910848   -0.453630   -0.159105
     19          7           0        4.228551   -0.562681    1.255649
     20          1           0        3.545962   -1.157834    1.705952
     21          1           0        4.137597    0.383590    1.697202
     22          7           0        4.954007    0.389060   -0.712671
     23          1           0        4.683192    0.615338   -1.662858
     24          1           0        4.938452    1.318948   -0.228136
     25          6           0       -3.634069   -0.445379   -0.089103
     26          8           0       -4.586572    0.257684    0.524960
     27          8           0       -3.789202   -1.584968   -0.426908
 ---------------------------------------------------------------------
 Rotational constants (GHZ):           2.7669538           0.2562204           0.2486531
 Standard basis: def2TZVP (5D, 7F)
 There are   522 symmetry adapted cartesian basis functions of A   symmetry.
 There are   462 symmetry adapted basis functions of A   symmetry.
   462 basis functions,   732 primitive gaussians,   522 cartesian basis functions
    48 alpha electrons       48 beta electrons
       nuclear repulsion energy       711.3583152955 Hartrees.
 NAtoms=   27 NActive=   27 NUniq=   27 SFac= 1.00D+00 NAtFMM=   60 NAOKFM=F Big=F
 Integral buffers will be    131072 words long.
 Raffenetti 2 integral format.
 Two-electron integral symmetry is turned on.
 Nuclear repulsion after empirical dispersion term =      711.3408073494 Hartrees.
 One-electron integrals computed using PRISM.
   1 Symmetry operations used in ECPInt.
 ECPInt:  NShTT=   18528 NPrTT=   54924 LenC2=   16269 LenP2D=   36013.
 LDataN:  DoStor=T MaxTD1= 6 Len=  172
 NBasis=   462 RedAO= T EigKep=  7.71D-05  NBF=   462
 NBsUse=   462 1.00D-06 EigRej= -1.00D+00 NBFU=   462
 ExpMin= 9.52D-02 ExpMax= 2.70D+04 ExpMxC= 9.22D+02 IAcc=4 IRadAn=    299974 AccDes= 0.00D+00
 Harris functional with IExCor= 4639 and IRadAn=  299974 diagonalized for initial guess.
 HarFok:  IExCor= 4639 AccDes= 0.00D+00 IRadAn=    299974 IDoV= 1 UseB2=F ITyADJ=14
 ICtDFT=  3500011 ScaDFX=  1.000000  1.000000  1.000000  1.000000
 FoFCou: FMM=F IPFlag=           0 FMFlag=      100000 FMFlg1=           0
         NFxFlg=           0 DoJE=T BraDBF=F KetDBF=T FulRan=T
         wScrn=  0.000000 ICntrl=       500 IOpCl=  0 I1Cent=   200000004 NGrid=           0
         NMat0=    1 NMatS0=      1 NMatT0=    0 NMatD0=    1 NMtDS0=    0 NMtDT0=    0
 Petite list used in FoFCou.
 Requested convergence on RMS density matrix=1.00D-08 within 128 cycles.
 Requested convergence on MAX density matrix=1.00D-06.
 Requested convergence on             energy=1.00D-06.
 No special actions if energy rises.
 Integral accuracy reduced to 1.0D-05 until final iterations.
 Initial convergence to 1.0D-05 achieved.  Increase integral accuracy.
 SCF Done:  E(RwB97XD) =  -607.133021578     A.U. after   17 cycles
            NFock= 17  Conv=0.23D-08     -V/T= 2.0045

 **********************************************************************

            Population analysis using the SCF Density.

 **********************************************************************

 Orbital symmetries:
       Occupied  (A) (A) (A) (A) (A) (A) (A) (A) (A) (A) (A) (A)
                 (A) (A) (A) (A) (A) (A) (A) (A) (A) (A) (A) (A)
                 (A) (A) (A) (A) (A) (A) (A) (A) (A) (A) (A) (A)
                 (A) (A) (A) (A) (A) (A) (A) (A) (A) (A) (A) (A)
       Virtual   (A) (A) (A) (A) (A) (A) (A) (A) (A) (A) (A) (A)
                 (A) (A) (A) (A) (A) (A) (A) (A) (A) (A) (A) (A)
                 (A) (A) (A) (A) (A) (A) (A) (A) (A) (A) (A) (A)
                 (A) (A) (A) (A) (A) (A) (A) (A) (A) (A) (A) (A)
                 (A) (A) (A) (A) (A) (A) (A) (A) (A) (A) (A) (A)
                 (A) (A) (A) (A) (A) (A) (A) (A) (A) (A) (A) (A)
                 (A) (A) (A) (A) (A) (A) (A) (A) (A) (A) (A) (A)
                 (A) (A) (A) (A) (A) (A) (A) (A) (A) (A) (A) (A)
                 (A) (A) (A) (A) (A) (A) (A) (A) (A) (A) (A) (A)
                 (A) (A) (A) (A) (A) (A) (A) (A) (A) (A) (A) (A)
                 (A) (A) (A) (A) (A) (A) (A) (A) (A) (A) (A) (A)
                 (A) (A) (A) (A) (A) (A) (A) (A) (A) (A) (A) (A)
                 (A) (A) (A) (A) (A) (A) (A) (A) (A) (A) (A) (A)
                 (A) (A) (A) (A) (A) (A) (A) (A) (A) (A) (A) (A)
                 (A) (A) (A) (A) (A) (A) (A) (A) (A) (A) (A) (A)
                 (A) (A) (A) (A) (A) (A) (A) (A) (A) (A) (A) (A)
                 (A) (A) (A) (A) (A) (A) (A) (A) (A) (A) (A) (A)
                 (A) (A) (A) (A) (A) (A) (A) (A) (A) (A) (A) (A)
                 (A) (A) (A) (A) (A) (A) (A) (A) (A) (A) (A) (A)
                 (A) (A) (A) (A) (A) (A) (A) (A) (A) (A) (A) (A)
                 (A) (A) (A) (A) (A) (A) (A) (A) (A) (A) (A) (A)
                 (A) (A) (A) (A) (A) (A) (A) (A) (A) (A) (A) (A)
                 (A) (A) (A) (A) (A) (A) (A) (A) (A) (A) (A) (A)
                 (A) (A) (A) (A) (A) (A) (A) (A) (A) (A) (A) (A)
                 (A) (A) (A) (A) (A) (A) (A) (A) (A) (A) (A) (A)
                 (A) (A) (A) (A) (A) (A) (A) (A) (A) (A) (A) (A)
                 (A) (A) (A) (A) (A) (A) (A) (A) (A) (A) (A) (A)
                 (A) (A) (A) (A) (A) (A) (A) (A) (A) (A) (A) (A)
                 (A) (A) (A) (A) (A) (A) (A) (A) (A) (A) (A) (A)
                 (A) (A) (A) (A) (A) (A) (A) (A) (A) (A) (A) (A)
                 (A) (A) (A) (A) (A) (A) (A) (A) (A) (A) (A) (A)
                 (A) (A) (A) (A) (A) (A) (A) (A) (A) (A) (A) (A)
                 (A) (A) (A) (A) (A) (A) (A) (A) (A) (A) (A) (A)
                 (A) (A) (A) (A) (A) (A) (A) (A) (A) (A) (A) (A)
                 (A) (A) (A) (A) (A) (A)
 The electronic state is 1-A.
 Alpha  occ. eigenvalues --  -19.20421 -19.14475 -14.37146 -14.23894 -14.22549
 Alpha  occ. eigenvalues --  -14.22165 -10.32612 -10.25466 -10.19390 -10.16787
 Alpha  occ. eigenvalues --  -10.15860 -10.09999  -1.12371  -1.03768  -0.94110
 Alpha  occ. eigenvalues --   -0.85527  -0.80062  -0.77097  -0.73949  -0.71246
 Alpha  occ. eigenvalues --   -0.62976  -0.60593  -0.56965  -0.54594  -0.51430
 Alpha  occ. eigenvalues --   -0.48812  -0.47894  -0.45818  -0.45276  -0.43374
 Alpha  occ. eigenvalues --   -0.41524  -0.40407  -0.39045  -0.37178  -0.36316
 Alpha  occ. eigenvalues --   -0.35050  -0.33836  -0.32681  -0.31886  -0.31187
 Alpha  occ. eigenvalues --   -0.30493  -0.28755  -0.28167  -0.26194  -0.18622
 Alpha  occ. eigenvalues --   -0.15534  -0.11875  -0.03608
 Alpha virt. eigenvalues --    0.15791   0.18122   0.20612   0.22637   0.23403
 Alpha virt. eigenvalues --    0.25100   0.25766   0.26600   0.27630   0.28148
 Alpha virt. eigenvalues --    0.29998   0.30973   0.32237   0.32761   0.33088
 Alpha virt. eigenvalues --    0.35023   0.35175   0.35395   0.36260   0.37531
 Alpha virt. eigenvalues --    0.37814   0.39304   0.40674   0.42146   0.43955
 Alpha virt. eigenvalues --    0.43987   0.44784   0.45629   0.46317   0.47427
 Alpha virt. eigenvalues --    0.47679   0.48631   0.49470   0.50855   0.51395
 Alpha virt. eigenvalues --    0.52567   0.53498   0.53937   0.54833   0.55456
 Alpha virt. eigenvalues --    0.56135   0.56470   0.57395   0.57807   0.59365
 Alpha virt. eigenvalues --    0.59588   0.60762   0.61437   0.61861   0.62400
 Alpha virt. eigenvalues --    0.62769   0.63777   0.63978   0.64799   0.65271
 Alpha virt. eigenvalues --    0.65706   0.66175   0.66895   0.67750   0.69168
 Alpha virt. eigenvalues --    0.69553   0.70068   0.70901   0.71886   0.72047
 Alpha virt. eigenvalues --    0.72112   0.73362   0.73816   0.74459   0.75427
 Alpha virt. eigenvalues --    0.77276   0.78246   0.78683   0.79356   0.80685
 Alpha virt. eigenvalues --    0.82305   0.82383   0.83632   0.84478   0.86001
 Alpha virt. eigenvalues --    0.86178   0.88815   0.90529   0.91046   0.92811
 Alpha virt. eigenvalues --    0.94826   0.96361   0.97958   0.99619   1.00764
 Alpha virt. eigenvalues --    1.02645   1.03908   1.06094   1.06391   1.08066
 Alpha virt. eigenvalues --    1.09088   1.09908   1.10155   1.13050   1.15374
 Alpha virt. eigenvalues --    1.16982   1.17519   1.18760   1.21123   1.22751
 Alpha virt. eigenvalues --    1.23833   1.26249   1.28247   1.29944   1.30650
 Alpha virt. eigenvalues --    1.33307   1.33991   1.36417   1.38062   1.40344
 Alpha virt. eigenvalues --    1.41060   1.43134   1.46333   1.47387   1.48685
 Alpha virt. eigenvalues --    1.49442   1.50733   1.52387   1.52797   1.53998
 Alpha virt. eigenvalues --    1.54958   1.55885   1.57202   1.58193   1.60374
 Alpha virt. eigenvalues --    1.61383   1.63487   1.64817   1.65475   1.66896
 Alpha virt. eigenvalues --    1.67512   1.70156   1.70866   1.72504   1.73603
 Alpha virt. eigenvalues --    1.73855   1.75751   1.77760   1.78328   1.80108
 Alpha virt. eigenvalues --    1.80336   1.81919   1.82933   1.85197   1.86706
 Alpha virt. eigenvalues --    1.88759   1.89482   1.92972   1.94060   1.95361
 Alpha virt. eigenvalues --    1.95405   1.96920   1.98673   1.99192   2.00961
 Alpha virt. eigenvalues --    2.01939   2.04168   2.05274   2.06102   2.07999
 Alpha virt. eigenvalues --    2.09327   2.09956   2.10731   2.11472   2.13421
 Alpha virt. eigenvalues --    2.15626   2.15986   2.16605   2.18396   2.20603
 Alpha virt. eigenvalues --    2.21397   2.22178   2.22660   2.23588   2.25009
 Alpha virt. eigenvalues --    2.25836   2.26447   2.27097   2.28692   2.29302
 Alpha virt. eigenvalues --    2.31672   2.32844   2.33438   2.36862   2.37529
 Alpha virt. eigenvalues --    2.40143   2.40510   2.43628   2.44424   2.45354
 Alpha virt. eigenvalues --    2.46120   2.48364   2.49084   2.51614   2.51977
 Alpha virt. eigenvalues --    2.54743   2.56339   2.58141   2.58624   2.60041
 Alpha virt. eigenvalues --    2.60899   2.62316   2.64968   2.65629   2.68021
 Alpha virt. eigenvalues --    2.68822   2.68999   2.71077   2.72116   2.73562
 Alpha virt. eigenvalues --    2.75092   2.76237   2.77446   2.79173   2.80398
 Alpha virt. eigenvalues --    2.81874   2.83011   2.83736   2.84237   2.86248
 Alpha virt. eigenvalues --    2.88585   2.89456   2.90247   2.90706   2.91134
 Alpha virt. eigenvalues --    2.94389   2.94860   2.95691   2.96457   2.97300
 Alpha virt. eigenvalues --    2.99667   3.03907   3.05095   3.06556   3.08016
 Alpha virt. eigenvalues --    3.09155   3.10312   3.12219   3.13482   3.14632
 Alpha virt. eigenvalues --    3.17049   3.18866   3.21694   3.22393   3.25153
 Alpha virt. eigenvalues --    3.25938   3.26173   3.28700   3.29376   3.30277
 Alpha virt. eigenvalues --    3.31804   3.33041   3.38338   3.38933   3.41053
 Alpha virt. eigenvalues --    3.42002   3.42898   3.44573   3.45181   3.46308
 Alpha virt. eigenvalues --    3.46509   3.48796   3.49869   3.51189   3.51882
 Alpha virt. eigenvalues --    3.52528   3.53626   3.54138   3.56668   3.58870
 Alpha virt. eigenvalues --    3.60388   3.62280   3.63963   3.64831   3.65978
 Alpha virt. eigenvalues --    3.68097   3.69008   3.69587   3.70866   3.74063
 Alpha virt. eigenvalues --    3.75426   3.76531   3.77777   3.81421   3.82022
 Alpha virt. eigenvalues --    3.83510   3.85693   3.86258   3.88413   3.92222
 Alpha virt. eigenvalues --    3.93959   3.95066   3.99587   4.04146   4.04791
 Alpha virt. eigenvalues --    4.06039   4.08010   4.11195   4.12528   4.13930
 Alpha virt. eigenvalues --    4.14080   4.18026   4.20597   4.21105   4.21925
 Alpha virt. eigenvalues --    4.26377   4.31485   4.32761   4.36588   4.37807
 Alpha virt. eigenvalues --    4.40524   4.43739   4.48621   4.51323   4.53641
 Alpha virt. eigenvalues --    4.54183   4.57028   4.58727   4.59779   4.60564
 Alpha virt. eigenvalues --    4.64104   4.66247   4.70267   4.74348   4.74758
 Alpha virt. eigenvalues --    4.77497   4.81545   4.84603   4.88366   4.89684
 Alpha virt. eigenvalues --    4.91612   4.93530   4.97680   4.98762   4.99578
 Alpha virt. eigenvalues --    5.00905   5.01942   5.07478   5.09540   5.10297
 Alpha virt. eigenvalues --    5.11853   5.12891   5.16885   5.18994   5.20713
 Alpha virt. eigenvalues --    5.24635   5.26057   5.27698   5.30354   5.30511
 Alpha virt. eigenvalues --    5.34045   5.35074   5.35321   5.38130   5.38609
 Alpha virt. eigenvalues --    5.41094   5.42175   5.45670   5.46681   5.48767
 Alpha virt. eigenvalues --    5.49608   5.52973   5.56853   5.59644   5.61311
 Alpha virt. eigenvalues --    5.63845   5.68275   5.70325   5.72306   5.72925
 Alpha virt. eigenvalues --    5.74373   5.76318   5.80436   5.86587   5.87752
 Alpha virt. eigenvalues --    5.93176   5.94297   5.96410   6.01194   6.10709
 Alpha virt. eigenvalues --    6.16548   6.20254   6.25859   6.35951   6.36442
 Alpha virt. eigenvalues --    6.53631   6.58951   6.63521   6.67848   6.89957
 Alpha virt. eigenvalues --    6.90133   6.97030   7.00755   7.19117   7.30569
 Alpha virt. eigenvalues --    7.34111   7.46542  22.62022  22.71214  22.73366
 Alpha virt. eigenvalues --   22.76950  22.80023  23.51682  32.20084  32.22220
 Alpha virt. eigenvalues --   32.30760  32.74927  44.02111  44.08742
          Condensed to atoms (all electrons):
               1          2          3          4          5          6
     1  N    6.771189   0.368696   0.372491   0.056220   0.142715  -0.044800
     2  H    0.368696   0.441789  -0.028764  -0.001653  -0.033593   0.005966
     3  H    0.372491  -0.028764   0.442050  -0.000773  -0.019359  -0.010993
     4  H    0.056220  -0.001653  -0.000773   0.358831  -0.017515   0.001364
     5  C    0.142715  -0.033593  -0.019359  -0.017515   5.404247   0.404304
     6  H   -0.044800   0.005966  -0.010993   0.001364   0.404304   0.578480
     7  C   -0.050485  -0.005901  -0.002921   0.003811   0.223488  -0.035753
     8  H    0.008512   0.000338  -0.000453  -0.000234  -0.044729  -0.003124
     9  H   -0.010422   0.004962  -0.000162  -0.000098  -0.024978   0.008547
    10  C    0.010098  -0.000154   0.001700  -0.000245  -0.041238  -0.003580
    11  H    0.017697   0.003243  -0.000419   0.000006  -0.024018  -0.000812
    12  H   -0.001740   0.000350   0.000414  -0.000046   0.005994   0.003026
    13  C    0.001906  -0.000500   0.000177   0.000005  -0.014471   0.000727
    14  H   -0.000105   0.000051  -0.000006   0.000000   0.001674  -0.000011
    15  H    0.000065  -0.000006   0.000048  -0.000002   0.002213  -0.000246
    16  N    0.000117   0.000006   0.000008  -0.000000  -0.000983  -0.000071
    17  H   -0.000183   0.000109   0.000004  -0.000001   0.001144  -0.000056
    18  C    0.000017  -0.000009   0.000000  -0.000000  -0.000155   0.000004
    19  N   -0.000000   0.000002   0.000000   0.000000   0.000025  -0.000001
    20  H   -0.000000   0.000000  -0.000000   0.000000   0.000006   0.000000
    21  H   -0.000001   0.000005   0.000000  -0.000000   0.000027  -0.000001
    22  N   -0.000000   0.000000   0.000000  -0.000000  -0.000002  -0.000000
    23  H   -0.000000  -0.000000   0.000000   0.000000   0.000001  -0.000000
    24  H   -0.000000   0.000000   0.000000  -0.000000   0.000007  -0.000000
    25  C   -0.006134  -0.000625   0.000447  -0.034422   0.233435  -0.014174
    26  O   -0.045385   0.000868   0.000307   0.288908  -0.123788   0.001699
    27  O    0.005318  -0.000022  -0.000214   0.005001  -0.131375   0.002426
               7          8          9         10         11         12
     1  N   -0.050485   0.008512  -0.010422   0.010098   0.017697  -0.001740
     2  H   -0.005901   0.000338   0.004962  -0.000154   0.003243   0.000350
     3  H   -0.002921  -0.000453  -0.000162   0.001700  -0.000419   0.000414
     4  H    0.003811  -0.000234  -0.000098  -0.000245   0.000006  -0.000046
     5  C    0.223488  -0.044729  -0.024978  -0.041238  -0.024018   0.005994
     6  H   -0.035753  -0.003124   0.008547  -0.003580  -0.000812   0.003026
     7  C    5.319044   0.396190   0.389752   0.143472  -0.057172  -0.019886
     8  H    0.396190   0.532401  -0.016379  -0.017501   0.007855  -0.006889
     9  H    0.389752  -0.016379   0.599575  -0.058416  -0.005995   0.008369
    10  C    0.143472  -0.017501  -0.058416   5.298510   0.411708   0.355413
    11  H   -0.057172   0.007855  -0.005995   0.411708   0.667198  -0.042576
    12  H   -0.019886  -0.006889   0.008369   0.355413  -0.042576   0.625072
    13  C   -0.057358   0.005360   0.006277   0.144306  -0.032381  -0.025348
    14  H   -0.027764   0.003426  -0.001399   0.045535   0.012308  -0.014131
    15  H    0.049103  -0.002748   0.004895  -0.094751  -0.014895   0.018653
    16  N    0.011380   0.000135   0.000220  -0.099549  -0.005347   0.018818
    17  H   -0.002437  -0.000158  -0.000382   0.039382   0.019040  -0.000461
    18  C   -0.002965  -0.000090   0.000164  -0.006156  -0.001814  -0.000126
    19  N    0.001536  -0.000005  -0.000139   0.006755  -0.000285   0.000202
    20  H   -0.000154   0.000013  -0.000042   0.001514   0.000062  -0.000128
    21  H    0.000044  -0.000014  -0.000053   0.005632   0.000970   0.000081
    22  N   -0.000111  -0.000000  -0.000001  -0.001156  -0.000048  -0.000134
    23  H    0.000074  -0.000002   0.000001  -0.000375  -0.000079   0.000364
    24  H    0.000002  -0.000003  -0.000001   0.002454   0.000308   0.000226
    25  C   -0.018196  -0.002256  -0.002194  -0.004074  -0.000423   0.000696
    26  O   -0.001460   0.000947   0.002265  -0.000663  -0.000009   0.000012
    27  O    0.011582   0.012345   0.000308  -0.001352  -0.000079   0.000025
              13         14         15         16         17         18
     1  N    0.001906  -0.000105   0.000065   0.000117  -0.000183   0.000017
     2  H   -0.000500   0.000051  -0.000006   0.000006   0.000109  -0.000009
     3  H    0.000177  -0.000006   0.000048   0.000008   0.000004   0.000000
     4  H    0.000005   0.000000  -0.000002  -0.000000  -0.000001  -0.000000
     5  C   -0.014471   0.001674   0.002213  -0.000983   0.001144  -0.000155
     6  H    0.000727  -0.000011  -0.000246  -0.000071  -0.000056   0.000004
     7  C   -0.057358  -0.027764   0.049103   0.011380  -0.002437  -0.002965
     8  H    0.005360   0.003426  -0.002748   0.000135  -0.000158  -0.000090
     9  H    0.006277  -0.001399   0.004895   0.000220  -0.000382   0.000164
    10  C    0.144306   0.045535  -0.094751  -0.099549   0.039382  -0.006156
    11  H   -0.032381   0.012308  -0.014895  -0.005347   0.019040  -0.001814
    12  H   -0.025348  -0.014131   0.018653   0.018818  -0.000461  -0.000126
    13  C    5.208086   0.281901   0.344316   0.437016  -0.165929  -0.067740
    14  H    0.281901   0.678055  -0.070511  -0.055570   0.043829   0.035358
    15  H    0.344316  -0.070511   0.865060  -0.103615  -0.005653  -0.033300
    16  N    0.437016  -0.055570  -0.103615   6.815873   0.147585   0.522399
    17  H   -0.165929   0.043829  -0.005653   0.147585   1.009614  -0.281922
    18  C   -0.067740   0.035358  -0.033300   0.522399  -0.281922   5.699067
    19  N    0.014876  -0.002954   0.040639  -0.161217  -0.016199   0.350534
    20  H    0.005065   0.001020  -0.002376   0.006129  -0.000455  -0.074365
    21  H   -0.015976   0.008324   0.006599  -0.044089   0.127963  -0.275214
    22  N    0.007061   0.003290  -0.000261  -0.175619   0.026067   0.413090
    23  H    0.001102  -0.000558   0.000520   0.013636   0.001399  -0.076524
    24  H   -0.007792   0.002685   0.001201  -0.044623   0.103507  -0.249792
    25  C   -0.000303  -0.000138   0.000416  -0.000002   0.000008  -0.000003
    26  O    0.000004  -0.000001  -0.000001  -0.000000  -0.000000   0.000000
    27  O    0.000197  -0.000029  -0.000004  -0.000000   0.000000   0.000000
              19         20         21         22         23         24
     1  N   -0.000000  -0.000000  -0.000001  -0.000000  -0.000000  -0.000000
     2  H    0.000002   0.000000   0.000005   0.000000  -0.000000   0.000000
     3  H    0.000000  -0.000000   0.000000   0.000000   0.000000   0.000000
     4  H    0.000000   0.000000  -0.000000  -0.000000   0.000000  -0.000000
     5  C    0.000025   0.000006   0.000027  -0.000002   0.000001   0.000007
     6  H   -0.000001   0.000000  -0.000001  -0.000000  -0.000000  -0.000000
     7  C    0.001536  -0.000154   0.000044  -0.000111   0.000074   0.000002
     8  H   -0.000005   0.000013  -0.000014  -0.000000  -0.000002  -0.000003
     9  H   -0.000139  -0.000042  -0.000053  -0.000001   0.000001  -0.000001
    10  C    0.006755   0.001514   0.005632  -0.001156  -0.000375   0.002454
    11  H   -0.000285   0.000062   0.000970  -0.000048  -0.000079   0.000308
    12  H    0.000202  -0.000128   0.000081  -0.000134   0.000364   0.000226
    13  C    0.014876   0.005065  -0.015976   0.007061   0.001102  -0.007792
    14  H   -0.002954   0.001020   0.008324   0.003290  -0.000558   0.002685
    15  H    0.040639  -0.002376   0.006599  -0.000261   0.000520   0.001201
    16  N   -0.161217   0.006129  -0.044089  -0.175619   0.013636  -0.044623
    17  H   -0.016199  -0.000455   0.127963   0.026067   0.001399   0.103507
    18  C    0.350534  -0.074365  -0.275214   0.413090  -0.076524  -0.249792
    19  N    6.737218   0.390564   0.240173  -0.093378   0.013228  -0.025767
    20  H    0.390564   0.547612  -0.053949   0.009754  -0.001458  -0.001544
    21  H    0.240173  -0.053949   0.899870  -0.007968  -0.000416   0.094602
    22  N   -0.093378   0.009754  -0.007968   6.687123   0.367377   0.270594
    23  H    0.013228  -0.001458  -0.000416   0.367377   0.560124  -0.040474
    24  H   -0.025767  -0.001544   0.094602   0.270594  -0.040474   0.854777
    25  C    0.000000  -0.000000   0.000000  -0.000000   0.000000   0.000000
    26  O   -0.000000  -0.000000   0.000000  -0.000000  -0.000000   0.000000
    27  O    0.000000  -0.000000   0.000000   0.000000   0.000000   0.000000
              25         26         27
     1  N   -0.006134  -0.045385   0.005318
     2  H   -0.000625   0.000868  -0.000022
     3  H    0.000447   0.000307  -0.000214
     4  H   -0.034422   0.288908   0.005001
     5  C    0.233435  -0.123788  -0.131375
     6  H   -0.014174   0.001699   0.002426
     7  C   -0.018196  -0.001460   0.011582
     8  H   -0.002256   0.000947   0.012345
     9  H   -0.002194   0.002265   0.000308
    10  C   -0.004074  -0.000663  -0.001352
    11  H   -0.000423  -0.000009  -0.000079
    12  H    0.000696   0.000012   0.000025
    13  C   -0.000303   0.000004   0.000197
    14  H   -0.000138  -0.000001  -0.000029
    15  H    0.000416  -0.000001  -0.000004
    16  N   -0.000002  -0.000000  -0.000000
    17  H    0.000008  -0.000000   0.000000
    18  C   -0.000003   0.000000   0.000000
    19  N    0.000000  -0.000000   0.000000
    20  H   -0.000000  -0.000000  -0.000000
    21  H    0.000000   0.000000   0.000000
    22  N   -0.000000  -0.000000   0.000000
    23  H    0.000000  -0.000000   0.000000
    24  H    0.000000   0.000000   0.000000
    25  C    4.436038   0.392310   0.700652
    26  O    0.392310   7.953848  -0.085405
    27  O    0.700652  -0.085405   7.840557
 Mulliken charges:
               1
     1  N   -0.595785
     2  H    0.244842
     3  H    0.246418
     4  H    0.340843
     5  C    0.056926
     6  H    0.107081
     7  C   -0.266914
     8  H    0.127065
     9  H    0.095327
    10  C   -0.137271
    11  H    0.045959
    12  H    0.073752
    13  C   -0.070583
    14  H    0.055722
    15  H   -0.005359
    16  N   -0.282636
    17  H   -0.045816
    18  C    0.049541
    19  N   -0.495808
    20  H    0.172732
    21  H    0.013392
    22  N   -0.505676
    23  H    0.162061
    24  H    0.039634
    25  C    0.318942
    26  O   -0.384458
    27  O   -0.359931
 Sum of Mulliken charges =  -1.00000
 Mulliken charges with hydrogens summed into heavy atoms:
               1
     1  N   -0.104525
     5  C    0.164007
     7  C   -0.044522
    10  C   -0.017560
    13  C   -0.020219
    16  N   -0.328452
    18  C    0.049541
    19  N   -0.309685
    22  N   -0.303981
    25  C    0.318942
    26  O   -0.043616
    27  O   -0.359931
 Electronic spatial extent (au):  <R**2>=           4291.1030
 Charge=             -1.0000 electrons
 Dipole moment (field-independent basis, Debye):
    X=            -14.0999    Y=              5.7930    Z=              0.8599  Tot=             15.2678
 Quadrupole moment (field-independent basis, Debye-Ang):
   XX=           -197.7530   YY=            -83.3882   ZZ=            -78.6617
   XY=             -2.8400   XZ=              0.4206   YZ=             -1.6702
 Traceless Quadrupole moment (field-independent basis, Debye-Ang):
   XX=            -77.8187   YY=             36.5461   ZZ=             41.2726
   XY=             -2.8400   XZ=              0.4206   YZ=             -1.6702
 Octapole moment (field-independent basis, Debye-Ang**2):
  XXX=           -355.7118  YYY=             20.9679  ZZZ=             -3.2132  XYY=            -19.5085
  XXY=             94.2506  XXZ=             -8.3884  XZZ=            -34.0098  YZZ=              5.1222
  YYZ=              3.7689  XYZ=              4.0230
 Hexadecapole moment (field-independent basis, Debye-Ang**3):
 XXXX=          -8080.6853 YYYY=           -422.7037 ZZZZ=           -267.1312 XXXY=             53.4913
 XXXZ=            -25.8585 YYYX=            -25.7914 YYYZ=            -10.6094 ZZZX=            -33.9362
 ZZZY=             -0.7555 XXYY=          -1041.5515 XXZZ=           -948.9352 YYZZ=           -113.6048
 XXYZ=            -14.1308 YYXZ=             -7.0966 ZZXY=              3.9608
 N-N= 7.113408073494D+02 E-N=-2.854483000502D+03  KE= 6.044161103981D+02
 Unable to Open any file for archive entry.
 1\1\GINC-WATER\SP\RwB97XD\def2TZVP\C6H15N4O2(1-)\DAYALYZ\11-Jun-2025\0
 \\# wB97xD/Def2TZVP SCF(Tight) Int(Grid=299974)\\Displacement_0.02\\-1
 ,1\N,0,-2.449391,1.662106,0.312579\H,0,-1.892601,1.661727,1.158668\H,0
 ,-2.080546,2.396181,-0.273303\H,0,-4.177396,1.141286,0.662011\C,0,-2.3
 48291,0.354291,-0.351331\H,0,-2.34121,0.525036,-1.432399\C,0,-1.094454
 ,-0.433998,0.018947\H,0,-1.158799,-1.420651,-0.442292\H,0,-1.094388,-0
 .600813,1.103594\C,0,0.189472,0.269027,-0.401511\H,0,0.226249,1.274775
 ,0.033698\H,0,0.202187,0.403801,-1.488111\C,0,1.454987,-0.475381,0.010
 983\H,0,1.500154,-1.448864,-0.487122\H,0,1.387151,-0.691628,1.097108\N
 ,0,2.637813,0.252447,-0.370362\H,0,2.663477,1.14038,0.185021\C,0,3.910
 9,-0.45352,-0.159039\N,0,4.228664,-0.561512,1.255782\H,0,3.546117,-1.1
 56361,1.706552\H,0,4.137688,0.385081,1.696639\N,0,4.954003,0.388804,-0
 .713269\H,0,4.683141,0.614368,-1.663612\H,0,4.938428,1.319049,-0.22942
 1\C,0,-3.634014,-0.44553,-0.088747\O,0,-4.586522,0.257947,0.524834\O,0
 ,-3.789113,-1.585375,-0.425703\\Version=ES64L-G16RevC.01\State=1-A\HF=
 -607.1330216\RMSD=2.253e-09\Dipole=-5.547409,2.279144,0.3368416\Quadru
 pole=-57.8560821,27.169134,30.6869482,-2.1148187,0.3177937,-1.2390877\
 PG=C01 [X(C6H15N4O2)]\\@
 The archive entry for this job was punched.


 IT IS A QUALITY OF REVOLUTIONS NOT TO GO BY OLD LINES OR OLD LAWS,
 BUT TO BREAK UP BOTH, AND MAKE NEW ONES.
                                              -- A. LINCOLN (1848)
 Job cpu time:       0 days  0 hours 49 minutes 44.8 seconds.
 Elapsed time:       0 days  0 hours 49 minutes 51.9 seconds.
 File lengths (MBytes):  RWF=    118 Int=      0 D2E=      0 Chk=     13 Scr=      1
 Normal termination of Gaussian 16 at Wed Jun 11 04:42:04 2025.
