 Entering Gaussian System, Link 0=g16
 Initial command:
 /opt/gaussian/g16/l1.exe "/scratch/Gau-4050196.inp" -scrdir="/scratch/"
 Entering Link 1 = /opt/gaussian/g16/l1.exe PID=   4050197.
  
 Copyright (c) 1988-2019, Gaussian, Inc.  All Rights Reserved.
  
 This is part of the Gaussian(R) 16 program.  It is based on
 the Gaussian(R) 09 system (copyright 2009, Gaussian, Inc.),
 the Gaussian(R) 03 system (copyright 2003, Gaussian, Inc.),
 the Gaussian(R) 98 system (copyright 1998, Gaussian, Inc.),
 the Gaussian(R) 94 system (copyright 1995, Gaussian, Inc.),
 the Gaussian 92(TM) system (copyright 1992, Gaussian, Inc.),
 the Gaussian 90(TM) system (copyright 1990, Gaussian, Inc.),
 the Gaussian 88(TM) system (copyright 1988, Gaussian, Inc.),
 the Gaussian 86(TM) system (copyright 1986, Carnegie Mellon
 University), and the Gaussian 82(TM) system (copyright 1983,
 Carnegie Mellon University). Gaussian is a federally registered
 trademark of Gaussian, Inc.
  
 This software contains proprietary and confidential information,
 including trade secrets, belonging to Gaussian, Inc.
  
 This software is provided under written license and may be
 used, copied, transmitted, or stored only in accord with that
 written license.
  
 The following legend is applicable only to US Government
 contracts under FAR:
  
                    RESTRICTED RIGHTS LEGEND
  
 Use, reproduction and disclosure by the US Government is
 subject to restrictions as set forth in subparagraphs (a)
 and (c) of the Commercial Computer Software - Restricted
 Rights clause in FAR 52.227-19.
  
 Gaussian, Inc.
 340 Quinnipiac St., Bldg. 40, Wallingford CT 06492
  
  
 ---------------------------------------------------------------
 Warning -- This program may not be used in any manner that
 competes with the business of Gaussian, Inc. or will provide
 assistance to any competitor of Gaussian, Inc.  The licensee
 of this program is prohibited from giving any competitor of
 Gaussian, Inc. access to this program.  By using this program,
 the user acknowledges that Gaussian, Inc. is engaged in the
 business of creating and licensing software in the field of
 computational chemistry and represents and warrants to the
 licensee that it is not a competitor of Gaussian, Inc. and that
 it will not use this program in any manner prohibited above.
 ---------------------------------------------------------------
  

 Cite this work as:
 Gaussian 16, Revision C.01,
 M. J. Frisch, G. W. Trucks, H. B. Schlegel, G. E. Scuseria, 
 M. A. Robb, J. R. Cheeseman, G. Scalmani, V. Barone, 
 G. A. Petersson, H. Nakatsuji, X. Li, M. Caricato, A. V. Marenich, 
 J. Bloino, B. G. Janesko, R. Gomperts, B. Mennucci, H. P. Hratchian, 
 J. V. Ortiz, A. F. Izmaylov, J. L. Sonnenberg, D. Williams-Young, 
 F. Ding, F. Lipparini, F. Egidi, J. Goings, B. Peng, A. Petrone, 
 T. Henderson, D. Ranasinghe, V. G. Zakrzewski, J. Gao, N. Rega, 
 G. Zheng, W. Liang, M. Hada, M. Ehara, K. Toyota, R. Fukuda, 
 J. Hasegawa, M. Ishida, T. Nakajima, Y. Honda, O. Kitao, H. Nakai, 
 T. Vreven, K. Throssell, J. A. Montgomery, Jr., J. E. Peralta, 
 F. Ogliaro, M. J. Bearpark, J. J. Heyd, E. N. Brothers, K. N. Kudin, 
 V. N. Staroverov, T. A. Keith, R. Kobayashi, J. Normand, 
 K. Raghavachari, A. P. Rendell, J. C. Burant, S. S. Iyengar, 
 J. Tomasi, M. Cossi, J. M. Millam, M. Klene, C. Adamo, R. Cammi, 
 J. W. Ochterski, R. L. Martin, K. Morokuma, O. Farkas, 
 J. B. Foresman, and D. J. Fox, Gaussian, Inc., Wallingford CT, 2019.
 
 ******************************************
 Gaussian 16:  ES64L-G16RevC.01  3-Jul-2019
                10-Jun-2025 
 ******************************************
 ---------------------------------------------
 # wB97xD/Def2TZVP SCF(Tight) Int(Grid=299974)
 ---------------------------------------------
 1/38=1,172=1/1;
 2/12=2,17=6,18=5,40=1/2;
 3/5=44,7=101,11=2,25=1,30=1,74=-58,75=299974/1,2,3;
 4//1;
 5/5=2,32=2,38=5/2;
 6/7=2,8=2,9=2,10=2,28=1/1;
 99/5=1,9=1/99;
 ------------------
 Displacement_-0.04
 ------------------
 Symbolic Z-matrix:
 Charge = -1 Multiplicity = 1
 N                    -2.44939   1.66211   0.31258 
 H                    -1.8926    1.66173   1.15867 
 H                    -2.08055   2.39618  -0.2733 
 H                    -4.1774    1.14129   0.66201 
 C                    -2.34829   0.35429  -0.35133 
 H                    -2.34121   0.52504  -1.4324 
 C                    -1.09445  -0.434     0.01895 
 H                    -1.1588   -1.42065  -0.44229 
 H                    -1.09439  -0.60081   1.10359 
 C                     0.18947   0.26903  -0.40151 
 H                     0.22625   1.27477   0.0337 
 H                     0.20219   0.4038   -1.48811 
 C                     1.45499  -0.47538   0.01098 
 H                     1.50015  -1.44826  -0.48772 
 H                     1.38775  -0.69103   1.09711 
 N                     2.63781   0.25245  -0.37036 
 H                     2.66348   1.14038   0.18442 
 C                     3.9115   -0.45352  -0.15964 
 N                     4.22926  -0.56211   1.25278 
 H                     3.54372  -1.13476   1.72875 
 H                     4.12269   0.37308   1.72304 
 N                     4.9546    0.3912   -0.71447 
 H                     4.67834   0.58737  -1.66901 
 H                     4.93663   1.30405  -0.20542 
 C                    -3.63401  -0.44553  -0.08875 
 O                    -4.58652   0.25795   0.52483 
 O                    -3.78911  -1.58538  -0.4257 
 
                          Input orientation:                          
 ---------------------------------------------------------------------
 Center     Atomic      Atomic             Coordinates (Angstroms)
 Number     Number       Type             X           Y           Z
 ---------------------------------------------------------------------
      1          7           0       -2.449391    1.662106    0.312579
      2          1           0       -1.892601    1.661727    1.158668
      3          1           0       -2.080546    2.396181   -0.273303
      4          1           0       -4.177396    1.141286    0.662011
      5          6           0       -2.348291    0.354291   -0.351331
      6          1           0       -2.341210    0.525036   -1.432399
      7          6           0       -1.094454   -0.433998    0.018947
      8          1           0       -1.158799   -1.420651   -0.442292
      9          1           0       -1.094388   -0.600813    1.103594
     10          6           0        0.189472    0.269027   -0.401511
     11          1           0        0.226249    1.274775    0.033698
     12          1           0        0.202187    0.403801   -1.488111
     13          6           0        1.454987   -0.475381    0.010983
     14          1           0        1.500154   -1.448264   -0.487722
     15          1           0        1.387751   -0.691028    1.097108
     16          7           0        2.637813    0.252447   -0.370362
     17          1           0        2.663477    1.140380    0.184421
     18          6           0        3.911500   -0.453520   -0.159639
     19          7           0        4.229264   -0.562112    1.252782
     20          1           0        3.543717   -1.134761    1.728752
     21          1           0        4.122688    0.373081    1.723039
     22          7           0        4.954603    0.391204   -0.714469
     23          1           0        4.678341    0.587368   -1.669012
     24          1           0        4.936628    1.304049   -0.205421
     25          6           0       -3.634014   -0.445530   -0.088747
     26          8           0       -4.586522    0.257947    0.524834
     27          8           0       -3.789113   -1.585375   -0.425703
 ---------------------------------------------------------------------
                    Distance matrix (angstroms):
                    1          2          3          4          5
     1  N    0.000000
     2  H    1.012858   0.000000
     3  H    1.009044   1.620274   0.000000
     4  H    1.838303   2.395374   2.616554   0.000000
     5  C    1.470162   2.048692   2.060847   2.234244   0.000000
     6  H    2.085565   2.864777   2.216446   2.852700   1.094492
     7  C    2.513111   2.515565   3.011262   3.521304   1.526634
     8  H    3.426200   3.550013   3.930188   4.110345   2.138594
     9  H    2.753641   2.399847   3.442430   3.568591   2.145065
    10  C    3.068255   2.951068   3.113552   4.578368   2.539691
    11  H    2.717876   2.429982   2.583235   4.450246   2.761122
    12  H    3.443353   3.602215   3.264385   4.934334   2.792787
    13  C    4.461387   4.134097   4.563626   5.895862   3.909546
    14  H    5.090559   4.888091   5.258055   6.345252   4.251863
    15  H    4.569068   4.037320   4.841278   5.875163   4.141096
    16  N    5.322893   4.984842   5.183428   6.950029   4.987180
    17  H    5.141016   4.688156   4.928722   6.857524   5.101253
    18  C    6.720104   6.316628   6.636138   8.285454   6.314609
    19  N    7.101800   6.513950   7.134013   8.597820   6.832072
    20  H    6.763531   6.139943   6.936001   8.119970   6.423378
    21  H    6.844210   6.177607   6.823374   8.402816   6.795361
    22  N    7.582160   7.211593   7.328566   9.265567   7.312010
    23  H    7.475716   7.233761   7.134589   9.174125   7.152913
    24  H    7.412814   6.973309   7.101978   9.156657   7.348018
    25  C    2.450821   3.004845   3.243863   1.837631   1.536798
    26  O    2.565939   3.103152   3.389540   0.983102   2.405541
    27  O    3.589714   4.080522   4.335345   2.961176   2.417396
                    6          7          8          9         10
     6  H    0.000000
     7  C    2.140222   0.000000
     8  H    2.482762   1.091039   0.000000
     9  H    3.041934   1.097400   1.751013   0.000000
    10  C    2.744562   1.522989   2.162061   2.161078   0.000000
    11  H    3.050147   2.159717   3.067612   2.531124   1.096489
    12  H    2.546894   2.157408   2.504924   3.067131   1.095000
    13  C    4.182738   2.549789   2.816180   2.776481   1.525065
    14  H    4.420679   2.831508   2.659484   3.159447   2.162038
    15  H    4.667158   2.718426   3.063824   2.483786   2.145562
    16  N    5.098323   3.814785   4.149541   4.102429   2.448595
    17  H    5.295248   4.077756   4.643430   4.242426   2.687615
    18  C    6.455530   5.009177   5.169446   5.164917   3.799219
    19  N    7.180753   5.466327   5.713282   5.325883   4.443804
    20  H    6.883325   4.992708   5.187371   4.710408   4.214214
    21  H    7.194571   5.547421   5.983330   5.343226   4.471546
    22  N    7.332273   6.148979   6.382052   6.393727   4.776960
    23  H    7.023814   6.100619   6.293583   6.513334   4.675237
    24  H    7.421540   6.280533   6.680893   6.458728   4.862634
    25  C    2.102080   2.541869   2.683756   2.809891   3.902238
    26  O    2.990572   3.595726   3.937297   3.642449   4.865014
    27  O    2.750217   2.963877   2.635519   3.251101   4.389593
                   11         12         13         14         15
    11  H    0.000000
    12  H    1.753590   0.000000
    13  C    2.138541   2.142371   0.000000
    14  H    3.051173   2.472982   1.094188   0.000000
    15  H    2.518791   3.047551   1.109366   1.760036   0.000000
    16  N    2.650294   2.684128   1.440220   2.049502   2.146222
    17  H    2.445580   3.065593   2.025145   2.916535   2.411334
    18  C    4.074979   4.032225   2.462528   2.629020   2.829334
    19  N    4.569951   4.966169   3.040756   3.355989   2.848693
    20  H    4.436740   4.886840   2.783578   3.031038   2.289992
    21  H    4.341562   5.067816   3.281410   3.883613   3.000666
    22  N    4.868037   4.814991   3.677576   3.920239   4.144330
    23  H    4.815898   4.483567   3.787061   3.954759   4.484830
    24  H    4.716535   4.987050   3.915996   4.411833   4.274511
    25  C    4.228010   4.170854   5.090066   5.246364   5.165718
    26  O    4.943472   5.196629   6.107507   6.401879   6.076182
    27  O    4.951226   4.584322   5.378045   5.291407   5.469802
                   16         17         18         19         20
    16  N    0.000000
    17  H    1.047315   0.000000
    18  C    1.471418   2.053401   0.000000
    19  N    2.414709   2.547855   1.451792   0.000000
    20  H    2.674189   2.887221   2.040925   1.012151   0.000000
    21  H    2.569384   2.255081   2.066965   1.052182   1.615187
    22  N    2.346312   2.572650   1.452398   2.303260   3.207569
    23  H    2.441806   2.792976   1.987385   3.171727   3.974657
    24  H    2.533303   2.312137   2.035198   2.471695   3.410135
    25  C    6.316826   6.499856   7.545851   7.977746   7.436274
    26  O    7.279589   7.311433   8.555178   8.883720   8.336057
    27  O    6.684761   7.031210   7.787896   8.255831   7.656052
                   21         22         23         24         25
    21  H    0.000000
    22  N    2.575627   0.000000
    23  H    3.443934   1.012894   0.000000
    24  H    2.290886   1.045342   1.649983   0.000000
    25  C    8.007441   8.651936   8.524046   8.748174   0.000000
    26  O    8.792001   9.622198   9.526760   9.608225   1.333654
    27  O    8.429071   8.968992   8.829746   9.194338   1.198683
                   26         27
    26  O    0.000000
    27  O    2.221985   0.000000
 Stoichiometry    C6H15N4O2(1-)
 Framework group  C1[X(C6H15N4O2)]
 Deg. of freedom    75
 Full point group                 C1      NOp   1
 Largest Abelian subgroup         C1      NOp   1
 Largest concise Abelian subgroup C1      NOp   1
                         Standard orientation:                         
 ---------------------------------------------------------------------
 Center     Atomic      Atomic             Coordinates (Angstroms)
 Number     Number       Type             X           Y           Z
 ---------------------------------------------------------------------
      1          7           0       -2.449424    1.662497    0.310065
      2          1           0       -1.892567    1.663424    1.156110
      3          1           0       -2.080685    2.395730   -0.276937
      4          1           0       -4.177358    1.142055    0.660408
      5          6           0       -2.348268    0.353704   -0.351905
      6          1           0       -2.341286    0.522841   -1.433227
      7          6           0       -1.094337   -0.433929    0.019447
      8          1           0       -1.158636   -1.421273   -0.440318
      9          1           0       -1.094172   -0.599130    1.104341
     10          6           0        0.189498    0.268575   -0.402158
     11          1           0        0.226226    1.274973    0.031551
     12          1           0        0.202117    0.401733   -1.488958
     13          6           0        1.455107   -0.475114    0.011344
     14          1           0        1.500315   -1.448734   -0.485916
     15          1           0        1.387974   -0.689150    1.097795
     16          7           0        2.637843    0.252243   -0.371176
     17          1           0        2.663477    1.141003    0.182283
     18          6           0        3.911605   -0.453304   -0.159503
     19          7           0        4.229489   -0.559768    1.253053
     20          1           0        3.544026   -1.131764    1.729929
     21          1           0        4.122872    0.376115    1.721926
     22          7           0        4.954595    0.390679   -0.715671
     23          1           0        4.678242    0.585400   -1.670483
     24          1           0        4.936584    1.304280   -0.207981
     25          6           0       -3.633904   -0.445831   -0.088030
     26          8           0       -4.586422    0.258480    0.524578
     27          8           0       -3.788935   -1.586189   -0.423277
 ---------------------------------------------------------------------
 Rotational constants (GHZ):           2.7669812           0.2562074           0.2486638
 Standard basis: def2TZVP (5D, 7F)
 There are   522 symmetry adapted cartesian basis functions of A   symmetry.
 There are   462 symmetry adapted basis functions of A   symmetry.
   462 basis functions,   732 primitive gaussians,   522 cartesian basis functions
    48 alpha electrons       48 beta electrons
       nuclear repulsion energy       711.3611022174 Hartrees.
 NAtoms=   27 NActive=   27 NUniq=   27 SFac= 1.00D+00 NAtFMM=   60 NAOKFM=F Big=F
 Integral buffers will be    131072 words long.
 Raffenetti 2 integral format.
 Two-electron integral symmetry is turned on.
 Nuclear repulsion after empirical dispersion term =      711.3435908909 Hartrees.
 One-electron integrals computed using PRISM.
   1 Symmetry operations used in ECPInt.
 ECPInt:  NShTT=   18528 NPrTT=   54924 LenC2=   16268 LenP2D=   36015.
 LDataN:  DoStor=T MaxTD1= 6 Len=  172
 NBasis=   462 RedAO= T EigKep=  7.71D-05  NBF=   462
 NBsUse=   462 1.00D-06 EigRej= -1.00D+00 NBFU=   462
 ExpMin= 9.52D-02 ExpMax= 2.70D+04 ExpMxC= 9.22D+02 IAcc=4 IRadAn=    299974 AccDes= 0.00D+00
 Harris functional with IExCor= 4639 and IRadAn=  299974 diagonalized for initial guess.
 HarFok:  IExCor= 4639 AccDes= 0.00D+00 IRadAn=    299974 IDoV= 1 UseB2=F ITyADJ=14
 ICtDFT=  3500011 ScaDFX=  1.000000  1.000000  1.000000  1.000000
 FoFCou: FMM=F IPFlag=           0 FMFlag=      100000 FMFlg1=           0
         NFxFlg=           0 DoJE=T BraDBF=F KetDBF=T FulRan=T
         wScrn=  0.000000 ICntrl=       500 IOpCl=  0 I1Cent=   200000004 NGrid=           0
         NMat0=    1 NMatS0=      1 NMatT0=    0 NMatD0=    1 NMtDS0=    0 NMtDT0=    0
 Petite list used in FoFCou.
 Requested convergence on RMS density matrix=1.00D-08 within 128 cycles.
 Requested convergence on MAX density matrix=1.00D-06.
 Requested convergence on             energy=1.00D-06.
 No special actions if energy rises.
 Integral accuracy reduced to 1.0D-05 until final iterations.
 Initial convergence to 1.0D-05 achieved.  Increase integral accuracy.
 SCF Done:  E(RwB97XD) =  -607.132800062     A.U. after   17 cycles
            NFock= 17  Conv=0.22D-08     -V/T= 2.0045

 **********************************************************************

            Population analysis using the SCF Density.

 **********************************************************************

 Orbital symmetries:
       Occupied  (A) (A) (A) (A) (A) (A) (A) (A) (A) (A) (A) (A)
                 (A) (A) (A) (A) (A) (A) (A) (A) (A) (A) (A) (A)
                 (A) (A) (A) (A) (A) (A) (A) (A) (A) (A) (A) (A)
                 (A) (A) (A) (A) (A) (A) (A) (A) (A) (A) (A) (A)
       Virtual   (A) (A) (A) (A) (A) (A) (A) (A) (A) (A) (A) (A)
                 (A) (A) (A) (A) (A) (A) (A) (A) (A) (A) (A) (A)
                 (A) (A) (A) (A) (A) (A) (A) (A) (A) (A) (A) (A)
                 (A) (A) (A) (A) (A) (A) (A) (A) (A) (A) (A) (A)
                 (A) (A) (A) (A) (A) (A) (A) (A) (A) (A) (A) (A)
                 (A) (A) (A) (A) (A) (A) (A) (A) (A) (A) (A) (A)
                 (A) (A) (A) (A) (A) (A) (A) (A) (A) (A) (A) (A)
                 (A) (A) (A) (A) (A) (A) (A) (A) (A) (A) (A) (A)
                 (A) (A) (A) (A) (A) (A) (A) (A) (A) (A) (A) (A)
                 (A) (A) (A) (A) (A) (A) (A) (A) (A) (A) (A) (A)
                 (A) (A) (A) (A) (A) (A) (A) (A) (A) (A) (A) (A)
                 (A) (A) (A) (A) (A) (A) (A) (A) (A) (A) (A) (A)
                 (A) (A) (A) (A) (A) (A) (A) (A) (A) (A) (A) (A)
                 (A) (A) (A) (A) (A) (A) (A) (A) (A) (A) (A) (A)
                 (A) (A) (A) (A) (A) (A) (A) (A) (A) (A) (A) (A)
                 (A) (A) (A) (A) (A) (A) (A) (A) (A) (A) (A) (A)
                 (A) (A) (A) (A) (A) (A) (A) (A) (A) (A) (A) (A)
                 (A) (A) (A) (A) (A) (A) (A) (A) (A) (A) (A) (A)
                 (A) (A) (A) (A) (A) (A) (A) (A) (A) (A) (A) (A)
                 (A) (A) (A) (A) (A) (A) (A) (A) (A) (A) (A) (A)
                 (A) (A) (A) (A) (A) (A) (A) (A) (A) (A) (A) (A)
                 (A) (A) (A) (A) (A) (A) (A) (A) (A) (A) (A) (A)
                 (A) (A) (A) (A) (A) (A) (A) (A) (A) (A) (A) (A)
                 (A) (A) (A) (A) (A) (A) (A) (A) (A) (A) (A) (A)
                 (A) (A) (A) (A) (A) (A) (A) (A) (A) (A) (A) (A)
                 (A) (A) (A) (A) (A) (A) (A) (A) (A) (A) (A) (A)
                 (A) (A) (A) (A) (A) (A) (A) (A) (A) (A) (A) (A)
                 (A) (A) (A) (A) (A) (A) (A) (A) (A) (A) (A) (A)
                 (A) (A) (A) (A) (A) (A) (A) (A) (A) (A) (A) (A)
                 (A) (A) (A) (A) (A) (A) (A) (A) (A) (A) (A) (A)
                 (A) (A) (A) (A) (A) (A) (A) (A) (A) (A) (A) (A)
                 (A) (A) (A) (A) (A) (A) (A) (A) (A) (A) (A) (A)
                 (A) (A) (A) (A) (A) (A) (A) (A) (A) (A) (A) (A)
                 (A) (A) (A) (A) (A) (A) (A) (A) (A) (A) (A) (A)
                 (A) (A) (A) (A) (A) (A)
 The electronic state is 1-A.
 Alpha  occ. eigenvalues --  -19.20420 -19.14474 -14.37146 -14.23881 -14.22600
 Alpha  occ. eigenvalues --  -14.22121 -10.32612 -10.25466 -10.19389 -10.16785
 Alpha  occ. eigenvalues --  -10.15854 -10.10013  -1.12370  -1.03767  -0.94109
 Alpha  occ. eigenvalues --   -0.85522  -0.80062  -0.77096  -0.73959  -0.71243
 Alpha  occ. eigenvalues --   -0.62973  -0.60592  -0.56961  -0.54590  -0.51429
 Alpha  occ. eigenvalues --   -0.48814  -0.47914  -0.45820  -0.45278  -0.43382
 Alpha  occ. eigenvalues --   -0.41499  -0.40407  -0.39089  -0.37138  -0.36257
 Alpha  occ. eigenvalues --   -0.35183  -0.33692  -0.32675  -0.31887  -0.31200
 Alpha  occ. eigenvalues --   -0.30530  -0.28645  -0.28265  -0.26190  -0.18668
 Alpha  occ. eigenvalues --   -0.15498  -0.11872  -0.03609
 Alpha virt. eigenvalues --    0.15792   0.18122   0.20608   0.22639   0.23391
 Alpha virt. eigenvalues --    0.25088   0.25758   0.26597   0.27613   0.28231
 Alpha virt. eigenvalues --    0.30002   0.30927   0.32241   0.32745   0.33112
 Alpha virt. eigenvalues --    0.34985   0.35196   0.35445   0.36255   0.37527
 Alpha virt. eigenvalues --    0.37813   0.39304   0.40684   0.42173   0.43932
 Alpha virt. eigenvalues --    0.43990   0.44787   0.45635   0.46367   0.47425
 Alpha virt. eigenvalues --    0.47621   0.48622   0.49465   0.50844   0.51420
 Alpha virt. eigenvalues --    0.52607   0.53474   0.53835   0.54809   0.55454
 Alpha virt. eigenvalues --    0.56136   0.56660   0.57446   0.57925   0.59374
 Alpha virt. eigenvalues --    0.59611   0.60769   0.61432   0.61937   0.62425
 Alpha virt. eigenvalues --    0.62760   0.63691   0.63958   0.64804   0.65262
 Alpha virt. eigenvalues --    0.65703   0.66130   0.66896   0.67697   0.69270
 Alpha virt. eigenvalues --    0.69453   0.70004   0.70896   0.71869   0.72057
 Alpha virt. eigenvalues --    0.72086   0.73375   0.73779   0.74488   0.75421
 Alpha virt. eigenvalues --    0.77190   0.78104   0.78757   0.79371   0.80682
 Alpha virt. eigenvalues --    0.82226   0.82529   0.83633   0.84462   0.85988
 Alpha virt. eigenvalues --    0.86096   0.88809   0.90549   0.91085   0.92722
 Alpha virt. eigenvalues --    0.94806   0.96373   0.97974   0.99405   1.00702
 Alpha virt. eigenvalues --    1.02842   1.04120   1.06079   1.06486   1.08188
 Alpha virt. eigenvalues --    1.09149   1.10074   1.10168   1.12774   1.15332
 Alpha virt. eigenvalues --    1.16924   1.17628   1.18765   1.21019   1.22712
 Alpha virt. eigenvalues --    1.23923   1.26226   1.28248   1.29973   1.30916
 Alpha virt. eigenvalues --    1.33298   1.34129   1.36377   1.38090   1.40092
 Alpha virt. eigenvalues --    1.40965   1.43091   1.46312   1.47175   1.48655
 Alpha virt. eigenvalues --    1.49452   1.50491   1.52370   1.52897   1.54029
 Alpha virt. eigenvalues --    1.54933   1.55842   1.57190   1.58235   1.60334
 Alpha virt. eigenvalues --    1.61374   1.63522   1.64822   1.65357   1.67110
 Alpha virt. eigenvalues --    1.67656   1.70127   1.70902   1.72597   1.73646
 Alpha virt. eigenvalues --    1.73895   1.75738   1.77786   1.78320   1.80166
 Alpha virt. eigenvalues --    1.80351   1.81918   1.83029   1.85174   1.86622
 Alpha virt. eigenvalues --    1.88750   1.89467   1.92811   1.93837   1.95289
 Alpha virt. eigenvalues --    1.95648   1.96832   1.98636   1.99619   2.00982
 Alpha virt. eigenvalues --    2.01382   2.04314   2.05282   2.06070   2.07917
 Alpha virt. eigenvalues --    2.09205   2.09956   2.10688   2.11478   2.13315
 Alpha virt. eigenvalues --    2.15488   2.15949   2.16596   2.18451   2.20644
 Alpha virt. eigenvalues --    2.21391   2.22146   2.23038   2.23470   2.25033
 Alpha virt. eigenvalues --    2.26046   2.26574   2.27098   2.28648   2.29299
 Alpha virt. eigenvalues --    2.31717   2.32788   2.33245   2.36851   2.37613
 Alpha virt. eigenvalues --    2.40080   2.40573   2.43678   2.44358   2.45332
 Alpha virt. eigenvalues --    2.46252   2.48317   2.49208   2.51668   2.51902
 Alpha virt. eigenvalues --    2.54805   2.56360   2.58292   2.58710   2.59971
 Alpha virt. eigenvalues --    2.60844   2.62356   2.65028   2.65605   2.67656
 Alpha virt. eigenvalues --    2.68602   2.68936   2.71165   2.72489   2.74163
 Alpha virt. eigenvalues --    2.74899   2.76052   2.77269   2.79090   2.80792
 Alpha virt. eigenvalues --    2.81756   2.82945   2.83781   2.84323   2.86015
 Alpha virt. eigenvalues --    2.88640   2.89445   2.90242   2.90674   2.91272
 Alpha virt. eigenvalues --    2.94108   2.94841   2.95746   2.96530   2.97340
 Alpha virt. eigenvalues --    2.99566   3.03738   3.05073   3.06597   3.07902
 Alpha virt. eigenvalues --    3.09147   3.10246   3.12204   3.13421   3.14664
 Alpha virt. eigenvalues --    3.17117   3.18928   3.21703   3.22800   3.25067
 Alpha virt. eigenvalues --    3.25788   3.26398   3.28827   3.29238   3.30291
 Alpha virt. eigenvalues --    3.31489   3.34849   3.38716   3.38989   3.40580
 Alpha virt. eigenvalues --    3.42307   3.42968   3.44326   3.45179   3.46315
 Alpha virt. eigenvalues --    3.46408   3.48832   3.49874   3.50941   3.51901
 Alpha virt. eigenvalues --    3.52516   3.53604   3.53810   3.56711   3.58603
 Alpha virt. eigenvalues --    3.60006   3.62165   3.63938   3.64818   3.65950
 Alpha virt. eigenvalues --    3.68067   3.69125   3.69556   3.70917   3.74005
 Alpha virt. eigenvalues --    3.75415   3.76473   3.77789   3.81382   3.82021
 Alpha virt. eigenvalues --    3.83558   3.85747   3.86568   3.88494   3.92494
 Alpha virt. eigenvalues --    3.93853   3.95128   3.99587   4.04131   4.04736
 Alpha virt. eigenvalues --    4.05917   4.07988   4.10982   4.12597   4.13981
 Alpha virt. eigenvalues --    4.14365   4.17947   4.20947   4.21003   4.22101
 Alpha virt. eigenvalues --    4.26294   4.31422   4.32660   4.36635   4.37950
 Alpha virt. eigenvalues --    4.40533   4.43786   4.48648   4.51298   4.53660
 Alpha virt. eigenvalues --    4.54407   4.56274   4.58731   4.59405   4.60942
 Alpha virt. eigenvalues --    4.64110   4.66165   4.70278   4.74347   4.74816
 Alpha virt. eigenvalues --    4.77457   4.81555   4.84620   4.88394   4.89993
 Alpha virt. eigenvalues --    4.91594   4.93534   4.97223   4.98591   4.99697
 Alpha virt. eigenvalues --    5.01096   5.01972   5.07510   5.09389   5.10111
 Alpha virt. eigenvalues --    5.11810   5.12797   5.16645   5.19223   5.20857
 Alpha virt. eigenvalues --    5.24997   5.26062   5.26790   5.30148   5.30825
 Alpha virt. eigenvalues --    5.34013   5.34903   5.35579   5.38092   5.38637
 Alpha virt. eigenvalues --    5.40749   5.42120   5.46391   5.46631   5.48872
 Alpha virt. eigenvalues --    5.49630   5.52977   5.57114   5.59737   5.61056
 Alpha virt. eigenvalues --    5.63848   5.68268   5.69519   5.72300   5.73108
 Alpha virt. eigenvalues --    5.75085   5.76386   5.80450   5.86041   5.87757
 Alpha virt. eigenvalues --    5.92392   5.94669   5.97178   6.01195   6.10710
 Alpha virt. eigenvalues --    6.16553   6.20367   6.25860   6.35952   6.36443
 Alpha virt. eigenvalues --    6.53631   6.58952   6.63521   6.67849   6.89957
 Alpha virt. eigenvalues --    6.90134   6.97030   7.00756   7.19117   7.30569
 Alpha virt. eigenvalues --    7.34111   7.46543  22.62017  22.71098  22.73367
 Alpha virt. eigenvalues --   22.76960  22.80154  23.51683  32.20082  32.22248
 Alpha virt. eigenvalues --   32.30902  32.74970  44.02112  44.08743
          Condensed to atoms (all electrons):
               1          2          3          4          5          6
     1  N    6.771168   0.368694   0.372489   0.056222   0.142746  -0.044788
     2  H    0.368694   0.441812  -0.028764  -0.001654  -0.033594   0.005964
     3  H    0.372489  -0.028764   0.442041  -0.000773  -0.019347  -0.010993
     4  H    0.056222  -0.001654  -0.000773   0.358835  -0.017517   0.001364
     5  C    0.142746  -0.033594  -0.019347  -0.017517   5.404354   0.404235
     6  H   -0.044788   0.005964  -0.010993   0.001364   0.404235   0.578484
     7  C   -0.050535  -0.005887  -0.002927   0.003811   0.223706  -0.035718
     8  H    0.008510   0.000338  -0.000453  -0.000235  -0.044726  -0.003120
     9  H   -0.010420   0.004959  -0.000163  -0.000099  -0.025058   0.008552
    10  C    0.010164  -0.000178   0.001700  -0.000246  -0.041658  -0.003585
    11  H    0.017678   0.003251  -0.000416   0.000006  -0.024002  -0.000814
    12  H   -0.001746   0.000352   0.000413  -0.000046   0.006039   0.003025
    13  C    0.001894  -0.000503   0.000176   0.000005  -0.014417   0.000733
    14  H   -0.000106   0.000051  -0.000006   0.000000   0.001674  -0.000014
    15  H    0.000066  -0.000002   0.000048  -0.000001   0.002232  -0.000247
    16  N    0.000117   0.000006   0.000008  -0.000000  -0.000979  -0.000071
    17  H   -0.000184   0.000110   0.000004  -0.000000   0.001143  -0.000057
    18  C    0.000017  -0.000009   0.000000  -0.000000  -0.000160   0.000004
    19  N   -0.000000   0.000002   0.000000   0.000000   0.000025  -0.000001
    20  H   -0.000000   0.000000  -0.000000   0.000000   0.000005   0.000000
    21  H   -0.000001   0.000005   0.000000  -0.000000   0.000028  -0.000001
    22  N   -0.000000   0.000000   0.000000  -0.000000  -0.000002  -0.000000
    23  H   -0.000000  -0.000000   0.000000   0.000000   0.000001  -0.000000
    24  H   -0.000000   0.000000   0.000000  -0.000000   0.000007  -0.000000
    25  C   -0.006148  -0.000622   0.000445  -0.034420   0.233504  -0.014154
    26  O   -0.045386   0.000868   0.000307   0.288907  -0.123788   0.001698
    27  O    0.005319  -0.000022  -0.000214   0.005001  -0.131376   0.002426
               7          8          9         10         11         12
     1  N   -0.050535   0.008510  -0.010420   0.010164   0.017678  -0.001746
     2  H   -0.005887   0.000338   0.004959  -0.000178   0.003251   0.000352
     3  H   -0.002927  -0.000453  -0.000163   0.001700  -0.000416   0.000413
     4  H    0.003811  -0.000235  -0.000099  -0.000246   0.000006  -0.000046
     5  C    0.223706  -0.044726  -0.025058  -0.041658  -0.024002   0.006039
     6  H   -0.035718  -0.003120   0.008552  -0.003585  -0.000814   0.003025
     7  C    5.320491   0.396101   0.389591   0.142596  -0.057303  -0.019897
     8  H    0.396101   0.532346  -0.016354  -0.017321   0.007851  -0.006895
     9  H    0.389591  -0.016354   0.599654  -0.058278  -0.005973   0.008356
    10  C    0.142596  -0.017321  -0.058278   5.297963   0.411727   0.355326
    11  H   -0.057303   0.007851  -0.005973   0.411727   0.667150  -0.042474
    12  H   -0.019897  -0.006895   0.008356   0.355326  -0.042474   0.625055
    13  C   -0.058457   0.005288   0.006360   0.148304  -0.032519  -0.025562
    14  H   -0.027668   0.003441  -0.001388   0.044636   0.012341  -0.013952
    15  H    0.050086  -0.002758   0.004760  -0.096490  -0.014835   0.018686
    16  N    0.011311   0.000129   0.000223  -0.098065  -0.005420   0.018743
    17  H   -0.002417  -0.000154  -0.000384   0.038212   0.019284  -0.000371
    18  C   -0.003261  -0.000089   0.000179  -0.006160  -0.001836  -0.000126
    19  N    0.001598  -0.000005  -0.000142   0.006478  -0.000282   0.000201
    20  H   -0.000147   0.000014  -0.000042   0.001416   0.000048  -0.000131
    21  H    0.000057  -0.000015  -0.000056   0.005531   0.000993   0.000088
    22  N   -0.000114   0.000000  -0.000001  -0.001165  -0.000036  -0.000129
    23  H    0.000075  -0.000002   0.000001  -0.000347  -0.000073   0.000374
    24  H    0.000000  -0.000003  -0.000001   0.002429   0.000316   0.000225
    25  C   -0.018204  -0.002266  -0.002207  -0.004095  -0.000424   0.000692
    26  O   -0.001462   0.000947   0.002266  -0.000662  -0.000009   0.000012
    27  O    0.011579   0.012347   0.000309  -0.001351  -0.000079   0.000025
              13         14         15         16         17         18
     1  N    0.001894  -0.000106   0.000066   0.000117  -0.000184   0.000017
     2  H   -0.000503   0.000051  -0.000002   0.000006   0.000110  -0.000009
     3  H    0.000176  -0.000006   0.000048   0.000008   0.000004   0.000000
     4  H    0.000005   0.000000  -0.000001  -0.000000  -0.000000  -0.000000
     5  C   -0.014417   0.001674   0.002232  -0.000979   0.001143  -0.000160
     6  H    0.000733  -0.000014  -0.000247  -0.000071  -0.000057   0.000004
     7  C   -0.058457  -0.027668   0.050086   0.011311  -0.002417  -0.003261
     8  H    0.005288   0.003441  -0.002758   0.000129  -0.000154  -0.000089
     9  H    0.006360  -0.001388   0.004760   0.000223  -0.000384   0.000179
    10  C    0.148304   0.044636  -0.096490  -0.098065   0.038212  -0.006160
    11  H   -0.032519   0.012341  -0.014835  -0.005420   0.019284  -0.001836
    12  H   -0.025562  -0.013952   0.018686   0.018743  -0.000371  -0.000126
    13  C    5.204500   0.282051   0.344085   0.438013  -0.165867  -0.069134
    14  H    0.282051   0.677773  -0.069766  -0.055827   0.043820   0.035892
    15  H    0.344085  -0.069766   0.867583  -0.103662  -0.005554  -0.035017
    16  N    0.438013  -0.055827  -0.103662   6.821455   0.147185   0.515436
    17  H   -0.165867   0.043820  -0.005554   0.147185   1.006912  -0.276465
    18  C   -0.069134   0.035892  -0.035017   0.515436  -0.276465   5.698890
    19  N    0.015832  -0.002838   0.040937  -0.158373  -0.016957   0.351685
    20  H    0.005924   0.000651  -0.002668   0.007232  -0.001240  -0.075803
    21  H   -0.016192   0.008415   0.006961  -0.044385   0.127302  -0.270077
    22  N    0.006716   0.003234  -0.000276  -0.177893   0.025956   0.408166
    23  H    0.000848  -0.000506   0.000546   0.012114   0.001870  -0.074066
    24  H   -0.007879   0.002708   0.001202  -0.045469   0.102896  -0.246504
    25  C   -0.000309  -0.000137   0.000418  -0.000003   0.000008  -0.000003
    26  O    0.000004  -0.000001  -0.000001  -0.000000  -0.000000   0.000000
    27  O    0.000197  -0.000029  -0.000004  -0.000000   0.000000   0.000000
              19         20         21         22         23         24
     1  N   -0.000000  -0.000000  -0.000001  -0.000000  -0.000000  -0.000000
     2  H    0.000002   0.000000   0.000005   0.000000  -0.000000   0.000000
     3  H    0.000000  -0.000000   0.000000   0.000000   0.000000   0.000000
     4  H    0.000000   0.000000  -0.000000  -0.000000   0.000000  -0.000000
     5  C    0.000025   0.000005   0.000028  -0.000002   0.000001   0.000007
     6  H   -0.000001   0.000000  -0.000001  -0.000000  -0.000000  -0.000000
     7  C    0.001598  -0.000147   0.000057  -0.000114   0.000075   0.000000
     8  H   -0.000005   0.000014  -0.000015   0.000000  -0.000002  -0.000003
     9  H   -0.000142  -0.000042  -0.000056  -0.000001   0.000001  -0.000001
    10  C    0.006478   0.001416   0.005531  -0.001165  -0.000347   0.002429
    11  H   -0.000282   0.000048   0.000993  -0.000036  -0.000073   0.000316
    12  H    0.000201  -0.000131   0.000088  -0.000129   0.000374   0.000225
    13  C    0.015832   0.005924  -0.016192   0.006716   0.000848  -0.007879
    14  H   -0.002838   0.000651   0.008415   0.003234  -0.000506   0.002708
    15  H    0.040937  -0.002668   0.006961  -0.000276   0.000546   0.001202
    16  N   -0.158373   0.007232  -0.044385  -0.177893   0.012114  -0.045469
    17  H   -0.016957  -0.001240   0.127302   0.025956   0.001870   0.102896
    18  C    0.351685  -0.075803  -0.270077   0.408166  -0.074066  -0.246504
    19  N    6.736837   0.392060   0.233924  -0.092765   0.012804  -0.026028
    20  H    0.392060   0.555534  -0.060305   0.010085  -0.001459  -0.002054
    21  H    0.233924  -0.060305   0.913841  -0.008679  -0.000054   0.093921
    22  N   -0.092765   0.010085  -0.008679   6.691968   0.367281   0.275274
    23  H    0.012804  -0.001459  -0.000054   0.367281   0.552674  -0.036466
    24  H   -0.026028  -0.002054   0.093921   0.275274  -0.036466   0.840453
    25  C    0.000000  -0.000000   0.000000  -0.000000   0.000000   0.000000
    26  O   -0.000000  -0.000000   0.000000  -0.000000  -0.000000   0.000000
    27  O    0.000000  -0.000000   0.000000   0.000000   0.000000   0.000000
              25         26         27
     1  N   -0.006148  -0.045386   0.005319
     2  H   -0.000622   0.000868  -0.000022
     3  H    0.000445   0.000307  -0.000214
     4  H   -0.034420   0.288907   0.005001
     5  C    0.233504  -0.123788  -0.131376
     6  H   -0.014154   0.001698   0.002426
     7  C   -0.018204  -0.001462   0.011579
     8  H   -0.002266   0.000947   0.012347
     9  H   -0.002207   0.002266   0.000309
    10  C   -0.004095  -0.000662  -0.001351
    11  H   -0.000424  -0.000009  -0.000079
    12  H    0.000692   0.000012   0.000025
    13  C   -0.000309   0.000004   0.000197
    14  H   -0.000137  -0.000001  -0.000029
    15  H    0.000418  -0.000001  -0.000004
    16  N   -0.000003  -0.000000  -0.000000
    17  H    0.000008  -0.000000   0.000000
    18  C   -0.000003   0.000000   0.000000
    19  N    0.000000  -0.000000   0.000000
    20  H   -0.000000  -0.000000  -0.000000
    21  H    0.000000   0.000000   0.000000
    22  N   -0.000000  -0.000000   0.000000
    23  H    0.000000  -0.000000   0.000000
    24  H    0.000000   0.000000   0.000000
    25  C    4.436028   0.392306   0.700653
    26  O    0.392306   7.953860  -0.085405
    27  O    0.700653  -0.085405   7.840553
 Mulliken charges:
               1
     1  N   -0.595768
     2  H    0.244821
     3  H    0.246425
     4  H    0.340840
     5  C    0.056925
     6  H    0.107076
     7  C   -0.267008
     8  H    0.127083
     9  H    0.095353
    10  C   -0.136881
    11  H    0.045850
    12  H    0.073721
    13  C   -0.070091
    14  H    0.055550
    15  H   -0.006330
    16  N   -0.281824
    17  H   -0.045054
    18  C    0.048440
    19  N   -0.494993
    20  H    0.170878
    21  H    0.008699
    22  N   -0.507619
    23  H    0.164386
    24  H    0.044975
    25  C    0.318939
    26  O   -0.384463
    27  O   -0.359927
 Sum of Mulliken charges =  -1.00000
 Mulliken charges with hydrogens summed into heavy atoms:
               1
     1  N   -0.104523
     5  C    0.164000
     7  C   -0.044572
    10  C   -0.017310
    13  C   -0.020870
    16  N   -0.326879
    18  C    0.048440
    19  N   -0.315416
    22  N   -0.298258
    25  C    0.318939
    26  O   -0.043623
    27  O   -0.359927
 Electronic spatial extent (au):  <R**2>=           4290.8234
 Charge=             -1.0000 electrons
 Dipole moment (field-independent basis, Debye):
    X=            -14.0999    Y=              5.7920    Z=              0.8505  Tot=             15.2669
 Quadrupole moment (field-independent basis, Debye-Ang):
   XX=           -197.7451   YY=            -83.5165   ZZ=            -78.5346
   XY=             -2.8828   XZ=              0.4247   YZ=             -1.5760
 Traceless Quadrupole moment (field-independent basis, Debye-Ang):
   XX=            -77.8130   YY=             36.4156   ZZ=             41.3975
   XY=             -2.8828   XZ=              0.4247   YZ=             -1.5760
 Octapole moment (field-independent basis, Debye-Ang**2):
  XXX=           -355.6317  YYY=             21.1917  ZZZ=             -3.1583  XYY=            -19.9375
  XXY=             93.9557  XXZ=             -8.7088  XZZ=            -33.6101  YZZ=              4.9237
  YYZ=              3.6794  XYZ=              4.3755
 Hexadecapole moment (field-independent basis, Debye-Ang**3):
 XXXX=          -8078.8431 YYYY=           -422.3423 ZZZZ=           -266.8129 XXXY=             51.9211
 XXXZ=            -26.6117 YYYX=            -25.0984 YYYZ=            -10.2127 ZZZX=            -33.9093
 ZZZY=             -0.8887 XXYY=          -1043.1444 XXZZ=           -947.5620 YYZZ=           -113.9952
 XXYZ=            -12.1567 YYXZ=             -7.1109 ZZXY=              3.1324
 N-N= 7.113435908909D+02 E-N=-2.854488955900D+03  KE= 6.044161737307D+02
 Unable to Open any file for archive entry.
 1\1\GINC-WATER\SP\RwB97XD\def2TZVP\C6H15N4O2(1-)\DAYALYZ\10-Jun-2025\0
 \\# wB97xD/Def2TZVP SCF(Tight) Int(Grid=299974)\\Displacement_-0.04\\-
 1,1\N,0,-2.449391,1.662106,0.312579\H,0,-1.892601,1.661727,1.158668\H,
 0,-2.080546,2.396181,-0.273303\H,0,-4.177396,1.141286,0.662011\C,0,-2.
 348291,0.354291,-0.351331\H,0,-2.34121,0.525036,-1.432399\C,0,-1.09445
 4,-0.433998,0.018947\H,0,-1.158799,-1.420651,-0.442292\H,0,-1.094388,-
 0.600813,1.103594\C,0,0.189472,0.269027,-0.401511\H,0,0.226249,1.27477
 5,0.033698\H,0,0.202187,0.403801,-1.488111\C,0,1.454987,-0.475381,0.01
 0983\H,0,1.500154,-1.448264,-0.487722\H,0,1.387751,-0.691028,1.097108\
 N,0,2.637813,0.252447,-0.370362\H,0,2.663477,1.14038,0.184421\C,0,3.91
 15,-0.45352,-0.159639\N,0,4.229264,-0.562112,1.252782\H,0,3.543717,-1.
 134761,1.728752\H,0,4.122688,0.373081,1.723039\N,0,4.954603,0.391204,-
 0.714469\H,0,4.678341,0.587368,-1.669012\H,0,4.936628,1.304049,-0.2054
 21\C,0,-3.634014,-0.44553,-0.088747\O,0,-4.586522,0.257947,0.524834\O,
 0,-3.789113,-1.585375,-0.425703\\Version=ES64L-G16RevC.01\State=1-A\HF
 =-607.1328001\RMSD=2.244e-09\Dipole=-5.5471638,2.2787086,0.3375593\Qua
 drupole=-57.8524938,27.0779417,30.7745521,-2.1366207,0.3055049,-1.1773
 963\PG=C01 [X(C6H15N4O2)]\\@
 The archive entry for this job was punched.


 MYSTERY IS THE WISDOM OF BLOCKHEADS... HORACE WALPOLE 
 Job cpu time:       0 days  0 hours 48 minutes 51.1 seconds.
 Elapsed time:       0 days  0 hours 48 minutes 57.3 seconds.
 File lengths (MBytes):  RWF=    118 Int=      0 D2E=      0 Chk=     13 Scr=      1
 Normal termination of Gaussian 16 at Tue Jun 10 17:56:20 2025.
