 Entering Gaussian System, Link 0=g16
 Initial command:
 /opt/gaussian/g16/l1.exe "/scratch/Gau-3984635.inp" -scrdir="/scratch/"
 Entering Link 1 = /opt/gaussian/g16/l1.exe PID=   3984636.
  
 Copyright (c) 1988-2019, Gaussian, Inc.  All Rights Reserved.
  
 This is part of the Gaussian(R) 16 program.  It is based on
 the Gaussian(R) 09 system (copyright 2009, Gaussian, Inc.),
 the Gaussian(R) 03 system (copyright 2003, Gaussian, Inc.),
 the Gaussian(R) 98 system (copyright 1998, Gaussian, Inc.),
 the Gaussian(R) 94 system (copyright 1995, Gaussian, Inc.),
 the Gaussian 92(TM) system (copyright 1992, Gaussian, Inc.),
 the Gaussian 90(TM) system (copyright 1990, Gaussian, Inc.),
 the Gaussian 88(TM) system (copyright 1988, Gaussian, Inc.),
 the Gaussian 86(TM) system (copyright 1986, Carnegie Mellon
 University), and the Gaussian 82(TM) system (copyright 1983,
 Carnegie Mellon University). Gaussian is a federally registered
 trademark of Gaussian, Inc.
  
 This software contains proprietary and confidential information,
 including trade secrets, belonging to Gaussian, Inc.
  
 This software is provided under written license and may be
 used, copied, transmitted, or stored only in accord with that
 written license.
  
 The following legend is applicable only to US Government
 contracts under FAR:
  
                    RESTRICTED RIGHTS LEGEND
  
 Use, reproduction and disclosure by the US Government is
 subject to restrictions as set forth in subparagraphs (a)
 and (c) of the Commercial Computer Software - Restricted
 Rights clause in FAR 52.227-19.
  
 Gaussian, Inc.
 340 Quinnipiac St., Bldg. 40, Wallingford CT 06492
  
  
 ---------------------------------------------------------------
 Warning -- This program may not be used in any manner that
 competes with the business of Gaussian, Inc. or will provide
 assistance to any competitor of Gaussian, Inc.  The licensee
 of this program is prohibited from giving any competitor of
 Gaussian, Inc. access to this program.  By using this program,
 the user acknowledges that Gaussian, Inc. is engaged in the
 business of creating and licensing software in the field of
 computational chemistry and represents and warrants to the
 licensee that it is not a competitor of Gaussian, Inc. and that
 it will not use this program in any manner prohibited above.
 ---------------------------------------------------------------
  

 Cite this work as:
 Gaussian 16, Revision C.01,
 M. J. Frisch, G. W. Trucks, H. B. Schlegel, G. E. Scuseria, 
 M. A. Robb, J. R. Cheeseman, G. Scalmani, V. Barone, 
 G. A. Petersson, H. Nakatsuji, X. Li, M. Caricato, A. V. Marenich, 
 J. Bloino, B. G. Janesko, R. Gomperts, B. Mennucci, H. P. Hratchian, 
 J. V. Ortiz, A. F. Izmaylov, J. L. Sonnenberg, D. Williams-Young, 
 F. Ding, F. Lipparini, F. Egidi, J. Goings, B. Peng, A. Petrone, 
 T. Henderson, D. Ranasinghe, V. G. Zakrzewski, J. Gao, N. Rega, 
 G. Zheng, W. Liang, M. Hada, M. Ehara, K. Toyota, R. Fukuda, 
 J. Hasegawa, M. Ishida, T. Nakajima, Y. Honda, O. Kitao, H. Nakai, 
 T. Vreven, K. Throssell, J. A. Montgomery, Jr., J. E. Peralta, 
 F. Ogliaro, M. J. Bearpark, J. J. Heyd, E. N. Brothers, K. N. Kudin, 
 V. N. Staroverov, T. A. Keith, R. Kobayashi, J. Normand, 
 K. Raghavachari, A. P. Rendell, J. C. Burant, S. S. Iyengar, 
 J. Tomasi, M. Cossi, J. M. Millam, M. Klene, C. Adamo, R. Cammi, 
 J. W. Ochterski, R. L. Martin, K. Morokuma, O. Farkas, 
 J. B. Foresman, and D. J. Fox, Gaussian, Inc., Wallingford CT, 2019.
 
 ******************************************
 Gaussian 16:  ES64L-G16RevC.01  3-Jul-2019
                10-Jun-2025 
 ******************************************
 ---------------------------------------------
 # wB97xD/Def2TZVP SCF(Tight) Int(Grid=299974)
 ---------------------------------------------
 1/38=1,172=1/1;
 2/12=2,17=6,18=5,40=1/2;
 3/5=44,7=101,11=2,25=1,30=1,74=-58,75=299974/1,2,3;
 4//1;
 5/5=2,32=2,38=5/2;
 6/7=2,8=2,9=2,10=2,28=1/1;
 99/5=1,9=1/99;
 ------------------
 Displacement_-0.06
 ------------------
 Symbolic Z-matrix:
 Charge = -1 Multiplicity = 1
 N                    -2.44939   1.66211   0.31258 
 H                    -1.8926    1.66173   1.15867 
 H                    -2.08055   2.39618  -0.2733 
 H                    -4.1774    1.14129   0.66201 
 C                    -2.34829   0.35429  -0.35133 
 H                    -2.34121   0.52504  -1.4324 
 C                    -1.09445  -0.434     0.01895 
 H                    -1.1588   -1.42065  -0.44229 
 H                    -1.09439  -0.60081   1.10359 
 C                     0.18947   0.26903  -0.40151 
 H                     0.22625   1.27477   0.0337 
 H                     0.20219   0.4038   -1.48811 
 C                     1.45499  -0.47538   0.01098 
 H                     1.50015  -1.44806  -0.48792 
 H                     1.38795  -0.69083   1.09711 
 N                     2.63781   0.25245  -0.37036 
 H                     2.66348   1.14038   0.18422 
 C                     3.9117   -0.45352  -0.15984 
 N                     4.22946  -0.56231   1.25178 
 H                     3.54292  -1.12756   1.73615 
 H                     4.11769   0.36908   1.73184 
 N                     4.9548    0.392    -0.71487 
 H                     4.67674   0.57837  -1.67081 
 H                     4.93603   1.29905  -0.19742 
 C                    -3.63401  -0.44553  -0.08875 
 O                    -4.58652   0.25795   0.52483 
 O                    -3.78911  -1.58538  -0.4257 
 
                          Input orientation:                          
 ---------------------------------------------------------------------
 Center     Atomic      Atomic             Coordinates (Angstroms)
 Number     Number       Type             X           Y           Z
 ---------------------------------------------------------------------
      1          7           0       -2.449391    1.662106    0.312579
      2          1           0       -1.892601    1.661727    1.158668
      3          1           0       -2.080546    2.396181   -0.273303
      4          1           0       -4.177396    1.141286    0.662011
      5          6           0       -2.348291    0.354291   -0.351331
      6          1           0       -2.341210    0.525036   -1.432399
      7          6           0       -1.094454   -0.433998    0.018947
      8          1           0       -1.158799   -1.420651   -0.442292
      9          1           0       -1.094388   -0.600813    1.103594
     10          6           0        0.189472    0.269027   -0.401511
     11          1           0        0.226249    1.274775    0.033698
     12          1           0        0.202187    0.403801   -1.488111
     13          6           0        1.454987   -0.475381    0.010983
     14          1           0        1.500154   -1.448064   -0.487922
     15          1           0        1.387951   -0.690828    1.097108
     16          7           0        2.637813    0.252447   -0.370362
     17          1           0        2.663477    1.140380    0.184221
     18          6           0        3.911700   -0.453520   -0.159839
     19          7           0        4.229464   -0.562312    1.251782
     20          1           0        3.542917   -1.127561    1.736152
     21          1           0        4.117688    0.369081    1.731839
     22          7           0        4.954803    0.392004   -0.714869
     23          1           0        4.676741    0.578368   -1.670812
     24          1           0        4.936028    1.299049   -0.197421
     25          6           0       -3.634014   -0.445530   -0.088747
     26          8           0       -4.586522    0.257947    0.524834
     27          8           0       -3.789113   -1.585375   -0.425703
 ---------------------------------------------------------------------
                    Distance matrix (angstroms):
                    1          2          3          4          5
     1  N    0.000000
     2  H    1.012858   0.000000
     3  H    1.009044   1.620274   0.000000
     4  H    1.838303   2.395374   2.616554   0.000000
     5  C    1.470162   2.048692   2.060847   2.234244   0.000000
     6  H    2.085565   2.864777   2.216446   2.852700   1.094492
     7  C    2.513111   2.515565   3.011262   3.521304   1.526634
     8  H    3.426200   3.550013   3.930188   4.110345   2.138594
     9  H    2.753641   2.399847   3.442430   3.568591   2.145065
    10  C    3.068255   2.951068   3.113552   4.578368   2.539691
    11  H    2.717876   2.429982   2.583235   4.450246   2.761122
    12  H    3.443353   3.602215   3.264385   4.934334   2.792787
    13  C    4.461387   4.134097   4.563626   5.895862   3.909546
    14  H    5.090468   4.888031   5.257917   6.345207   4.251784
    15  H    4.569133   4.037366   4.841293   5.875290   4.141226
    16  N    5.322893   4.984842   5.183428   6.950029   4.987180
    17  H    5.141021   4.688198   4.928704   6.857538   5.101232
    18  C    6.720307   6.316854   6.636315   8.285669   6.314801
    19  N    7.101918   6.514192   7.134059   8.597986   6.832056
    20  H    6.761402   6.136650   6.933830   8.118170   6.423379
    21  H    6.841984   6.174385   6.822597   8.399360   6.793283
    22  N    7.582275   7.211746   7.328563   9.265759   7.312234
    23  H    7.475967   7.234354   7.135713   9.173586   7.151386
    24  H    7.411904   6.971419   7.102237   9.155218   7.346942
    25  C    2.450821   3.004845   3.243863   1.837631   1.536798
    26  O    2.565939   3.103152   3.389540   0.983102   2.405541
    27  O    3.589714   4.080522   4.335345   2.961176   2.417396
                    6          7          8          9         10
     6  H    0.000000
     7  C    2.140222   0.000000
     8  H    2.482762   1.091039   0.000000
     9  H    3.041934   1.097400   1.751013   0.000000
    10  C    2.744562   1.522989   2.162061   2.161078   0.000000
    11  H    3.050147   2.159717   3.067612   2.531124   1.096489
    12  H    2.546894   2.157408   2.504924   3.067131   1.095000
    13  C    4.182738   2.549789   2.816180   2.776481   1.525065
    14  H    4.420547   2.831473   2.659486   3.159495   2.161887
    15  H    4.667266   2.718589   3.064038   2.483979   2.145584
    16  N    5.098323   3.814785   4.149541   4.102429   2.448595
    17  H    5.295187   4.077748   4.643403   4.242470   2.687571
    18  C    6.455685   5.009384   5.169631   5.165160   3.799403
    19  N    7.180593   5.466301   5.713144   5.326053   4.443651
    20  H    6.884311   4.993499   5.190150   4.709797   4.214932
    21  H    7.194031   5.544850   5.980911   5.338644   4.471250
    22  N    7.332418   6.149331   6.382487   6.394154   4.777206
    23  H    7.022202   6.098103   6.289584   6.511046   4.673585
    24  H    7.421756   6.278294   6.678596   6.455078   4.861316
    25  C    2.102080   2.541869   2.683756   2.809891   3.902238
    26  O    2.990572   3.595726   3.937297   3.642449   4.865014
    27  O    2.750217   2.963877   2.635519   3.251101   4.389593
                   11         12         13         14         15
    11  H    0.000000
    12  H    1.753590   0.000000
    13  C    2.138541   2.142371   0.000000
    14  H    3.051028   2.472752   1.094102   0.000000
    15  H    2.518727   3.047557   1.109315   1.760203   0.000000
    16  N    2.650294   2.684128   1.440220   2.049348   2.146017
    17  H    2.445567   3.065484   2.025128   2.916357   2.411152
    18  C    4.075170   4.032343   2.462742   2.629127   2.829406
    19  N    4.569940   4.965818   3.040536   3.355631   2.848620
    20  H    4.435071   4.888908   2.785857   3.036792   2.289758
    21  H    4.341343   5.069559   3.280920   3.883406   2.996290
    22  N    4.868148   4.815122   3.678033   3.920708   4.144662
    23  H    4.816349   4.481683   3.783982   3.949223   4.482006
    24  H    4.715509   4.987645   3.912759   4.408656   4.268989
    25  C    4.228010   4.170854   5.090066   5.246341   5.165903
    26  O    4.943472   5.196629   6.107507   6.401857   6.076348
    27  O    4.951226   4.584322   5.378045   5.291415   5.470024
                   16         17         18         19         20
    16  N    0.000000
    17  H    1.047209   0.000000
    18  C    1.471563   2.053523   0.000000
    19  N    2.414236   2.547776   1.451028   0.000000
    20  H    2.676011   2.885387   2.045755   1.012654   0.000000
    21  H    2.573496   2.259370   2.073053   1.053775   1.603221
    22  N    2.346615   2.572665   1.452939   2.303161   3.210919
    23  H    2.440209   2.794680   1.983210   3.169032   3.975318
    24  H    2.531220   2.309830   2.030310   2.462537   3.401161
    25  C    6.316826   6.499847   7.546053   7.977778   7.436650
    26  O    7.279589   7.311442   8.555392   8.883855   8.335149
    27  O    6.684761   7.031192   7.788087   8.255797   7.657798
                   21         22         23         24         25
    21  H    0.000000
    22  N    2.586052   0.000000
    23  H    3.454616   1.012856   0.000000
    24  H    2.292720   1.044431   1.660570   0.000000
    25  C    8.004187   8.652241   8.521734   8.746484   0.000000
    26  O    8.788201   9.622459   9.525312   9.606482   1.333654
    27  O    8.425698   8.969376   8.826254   9.192394   1.198683
                   26         27
    26  O    0.000000
    27  O    2.221985   0.000000
 Stoichiometry    C6H15N4O2(1-)
 Framework group  C1[X(C6H15N4O2)]
 Deg. of freedom    75
 Full point group                 C1      NOp   1
 Largest Abelian subgroup         C1      NOp   1
 Largest concise Abelian subgroup C1      NOp   1
                         Standard orientation:                         
 ---------------------------------------------------------------------
 Center     Atomic      Atomic             Coordinates (Angstroms)
 Number     Number       Type             X           Y           Z
 ---------------------------------------------------------------------
      1          7           0       -2.449440    1.662694    0.308799
      2          1           0       -1.892551    1.664277    1.154821
      3          1           0       -2.080755    2.395501   -0.278768
      4          1           0       -4.177340    1.142443    0.659599
      5          6           0       -2.348256    0.353409   -0.352194
      6          1           0       -2.341323    0.521735   -1.433643
      7          6           0       -1.094278   -0.433895    0.019699
      8          1           0       -1.158555   -1.421585   -0.439323
      9          1           0       -1.094064   -0.598282    1.104717
     10          6           0        0.189512    0.268346   -0.402482
     11          1           0        0.226215    1.275070    0.030471
     12          1           0        0.202082    0.400690   -1.489383
     13          6           0        1.455167   -0.474980    0.011528
     14          1           0        1.500396   -1.448772   -0.485204
     15          1           0        1.388285   -0.688004    1.098140
     16          7           0        2.637858    0.252139   -0.371584
     17          1           0        2.663477    1.141314    0.181007
     18          6           0        3.911857   -0.453198   -0.159632
     19          7           0        4.229801   -0.558791    1.252192
     20          1           0        3.543380   -1.123040    1.737906
     21          1           0        4.117966    0.373660    1.730176
     22          7           0        4.954790    0.391211   -0.716675
     23          1           0        4.676593    0.575401   -1.673000
     24          1           0        4.935964    1.299409   -0.201256
     25          6           0       -3.633849   -0.445982   -0.087670
     26          8           0       -4.586372    0.258749    0.524447
     27          8           0       -3.788847   -1.586597   -0.422056
 ---------------------------------------------------------------------
 Rotational constants (GHZ):           2.7669660           0.2562030           0.2486672
 Standard basis: def2TZVP (5D, 7F)
 There are   522 symmetry adapted cartesian basis functions of A   symmetry.
 There are   462 symmetry adapted basis functions of A   symmetry.
   462 basis functions,   732 primitive gaussians,   522 cartesian basis functions
    48 alpha electrons       48 beta electrons
       nuclear repulsion energy       711.3587606000 Hartrees.
 NAtoms=   27 NActive=   27 NUniq=   27 SFac= 1.00D+00 NAtFMM=   60 NAOKFM=F Big=F
 Integral buffers will be    131072 words long.
 Raffenetti 2 integral format.
 Two-electron integral symmetry is turned on.
 Nuclear repulsion after empirical dispersion term =      711.3412480539 Hartrees.
 One-electron integrals computed using PRISM.
   1 Symmetry operations used in ECPInt.
 ECPInt:  NShTT=   18528 NPrTT=   54924 LenC2=   16268 LenP2D=   36016.
 LDataN:  DoStor=T MaxTD1= 6 Len=  172
 NBasis=   462 RedAO= T EigKep=  7.71D-05  NBF=   462
 NBsUse=   462 1.00D-06 EigRej= -1.00D+00 NBFU=   462
 ExpMin= 9.52D-02 ExpMax= 2.70D+04 ExpMxC= 9.22D+02 IAcc=4 IRadAn=    299974 AccDes= 0.00D+00
 Harris functional with IExCor= 4639 and IRadAn=  299974 diagonalized for initial guess.
 HarFok:  IExCor= 4639 AccDes= 0.00D+00 IRadAn=    299974 IDoV= 1 UseB2=F ITyADJ=14
 ICtDFT=  3500011 ScaDFX=  1.000000  1.000000  1.000000  1.000000
 FoFCou: FMM=F IPFlag=           0 FMFlag=      100000 FMFlg1=           0
         NFxFlg=           0 DoJE=T BraDBF=F KetDBF=T FulRan=T
         wScrn=  0.000000 ICntrl=       500 IOpCl=  0 I1Cent=   200000004 NGrid=           0
         NMat0=    1 NMatS0=      1 NMatT0=    0 NMatD0=    1 NMtDS0=    0 NMtDT0=    0
 Petite list used in FoFCou.
 Requested convergence on RMS density matrix=1.00D-08 within 128 cycles.
 Requested convergence on MAX density matrix=1.00D-06.
 Requested convergence on             energy=1.00D-06.
 No special actions if energy rises.
 Integral accuracy reduced to 1.0D-05 until final iterations.
 Initial convergence to 1.0D-05 achieved.  Increase integral accuracy.
 SCF Done:  E(RwB97XD) =  -607.132430724     A.U. after   17 cycles
            NFock= 17  Conv=0.22D-08     -V/T= 2.0045

 **********************************************************************

            Population analysis using the SCF Density.

 **********************************************************************

 Orbital symmetries:
       Occupied  (A) (A) (A) (A) (A) (A) (A) (A) (A) (A) (A) (A)
                 (A) (A) (A) (A) (A) (A) (A) (A) (A) (A) (A) (A)
                 (A) (A) (A) (A) (A) (A) (A) (A) (A) (A) (A) (A)
                 (A) (A) (A) (A) (A) (A) (A) (A) (A) (A) (A) (A)
       Virtual   (A) (A) (A) (A) (A) (A) (A) (A) (A) (A) (A) (A)
                 (A) (A) (A) (A) (A) (A) (A) (A) (A) (A) (A) (A)
                 (A) (A) (A) (A) (A) (A) (A) (A) (A) (A) (A) (A)
                 (A) (A) (A) (A) (A) (A) (A) (A) (A) (A) (A) (A)
                 (A) (A) (A) (A) (A) (A) (A) (A) (A) (A) (A) (A)
                 (A) (A) (A) (A) (A) (A) (A) (A) (A) (A) (A) (A)
                 (A) (A) (A) (A) (A) (A) (A) (A) (A) (A) (A) (A)
                 (A) (A) (A) (A) (A) (A) (A) (A) (A) (A) (A) (A)
                 (A) (A) (A) (A) (A) (A) (A) (A) (A) (A) (A) (A)
                 (A) (A) (A) (A) (A) (A) (A) (A) (A) (A) (A) (A)
                 (A) (A) (A) (A) (A) (A) (A) (A) (A) (A) (A) (A)
                 (A) (A) (A) (A) (A) (A) (A) (A) (A) (A) (A) (A)
                 (A) (A) (A) (A) (A) (A) (A) (A) (A) (A) (A) (A)
                 (A) (A) (A) (A) (A) (A) (A) (A) (A) (A) (A) (A)
                 (A) (A) (A) (A) (A) (A) (A) (A) (A) (A) (A) (A)
                 (A) (A) (A) (A) (A) (A) (A) (A) (A) (A) (A) (A)
                 (A) (A) (A) (A) (A) (A) (A) (A) (A) (A) (A) (A)
                 (A) (A) (A) (A) (A) (A) (A) (A) (A) (A) (A) (A)
                 (A) (A) (A) (A) (A) (A) (A) (A) (A) (A) (A) (A)
                 (A) (A) (A) (A) (A) (A) (A) (A) (A) (A) (A) (A)
                 (A) (A) (A) (A) (A) (A) (A) (A) (A) (A) (A) (A)
                 (A) (A) (A) (A) (A) (A) (A) (A) (A) (A) (A) (A)
                 (A) (A) (A) (A) (A) (A) (A) (A) (A) (A) (A) (A)
                 (A) (A) (A) (A) (A) (A) (A) (A) (A) (A) (A) (A)
                 (A) (A) (A) (A) (A) (A) (A) (A) (A) (A) (A) (A)
                 (A) (A) (A) (A) (A) (A) (A) (A) (A) (A) (A) (A)
                 (A) (A) (A) (A) (A) (A) (A) (A) (A) (A) (A) (A)
                 (A) (A) (A) (A) (A) (A) (A) (A) (A) (A) (A) (A)
                 (A) (A) (A) (A) (A) (A) (A) (A) (A) (A) (A) (A)
                 (A) (A) (A) (A) (A) (A) (A) (A) (A) (A) (A) (A)
                 (A) (A) (A) (A) (A) (A) (A) (A) (A) (A) (A) (A)
                 (A) (A) (A) (A) (A) (A) (A) (A) (A) (A) (A) (A)
                 (A) (A) (A) (A) (A) (A) (A) (A) (A) (A) (A) (A)
                 (A) (A) (A) (A) (A) (A) (A) (A) (A) (A) (A) (A)
                 (A) (A) (A) (A) (A) (A)
 The electronic state is 1-A.
 Alpha  occ. eigenvalues --  -19.20420 -19.14474 -14.37146 -14.23878 -14.22623
 Alpha  occ. eigenvalues --  -14.22112 -10.32612 -10.25466 -10.19389 -10.16784
 Alpha  occ. eigenvalues --  -10.15853 -10.10021  -1.12370  -1.03767  -0.94109
 Alpha  occ. eigenvalues --   -0.85521  -0.80062  -0.77096  -0.73960  -0.71243
 Alpha  occ. eigenvalues --   -0.62972  -0.60592  -0.56959  -0.54589  -0.51428
 Alpha  occ. eigenvalues --   -0.48815  -0.47923  -0.45821  -0.45279  -0.43386
 Alpha  occ. eigenvalues --   -0.41501  -0.40408  -0.39117  -0.37132  -0.36238
 Alpha  occ. eigenvalues --   -0.35203  -0.33637  -0.32670  -0.31887  -0.31203
 Alpha  occ. eigenvalues --   -0.30540  -0.28603  -0.28293  -0.26189  -0.18684
 Alpha  occ. eigenvalues --   -0.15487  -0.11872  -0.03612
 Alpha virt. eigenvalues --    0.15792   0.18122   0.20606   0.22639   0.23387
 Alpha virt. eigenvalues --    0.25081   0.25755   0.26596   0.27605   0.28257
 Alpha virt. eigenvalues --    0.30001   0.30909   0.32242   0.32738   0.33119
 Alpha virt. eigenvalues --    0.34969   0.35203   0.35460   0.36253   0.37525
 Alpha virt. eigenvalues --    0.37813   0.39304   0.40686   0.42181   0.43923
 Alpha virt. eigenvalues --    0.43991   0.44787   0.45634   0.46379   0.47421
 Alpha virt. eigenvalues --    0.47603   0.48615   0.49463   0.50839   0.51424
 Alpha virt. eigenvalues --    0.52618   0.53435   0.53822   0.54800   0.55454
 Alpha virt. eigenvalues --    0.56135   0.56712   0.57458   0.57975   0.59376
 Alpha virt. eigenvalues --    0.59619   0.60773   0.61426   0.61965   0.62434
 Alpha virt. eigenvalues --    0.62756   0.63654   0.63956   0.64805   0.65257
 Alpha virt. eigenvalues --    0.65703   0.66114   0.66896   0.67679   0.69285
 Alpha virt. eigenvalues --    0.69420   0.69988   0.70897   0.71856   0.72042
 Alpha virt. eigenvalues --    0.72100   0.73372   0.73765   0.74495   0.75417
 Alpha virt. eigenvalues --    0.77151   0.78047   0.78788   0.79375   0.80679
 Alpha virt. eigenvalues --    0.82188   0.82592   0.83636   0.84457   0.85982
 Alpha virt. eigenvalues --    0.86077   0.88806   0.90550   0.91109   0.92689
 Alpha virt. eigenvalues --    0.94799   0.96378   0.97979   0.99326   1.00689
 Alpha virt. eigenvalues --    1.02882   1.04192   1.06072   1.06526   1.08236
 Alpha virt. eigenvalues --    1.09174   1.10093   1.10229   1.12665   1.15321
 Alpha virt. eigenvalues --    1.16908   1.17662   1.18761   1.20972   1.22696
 Alpha virt. eigenvalues --    1.23955   1.26220   1.28249   1.29970   1.30992
 Alpha virt. eigenvalues --    1.33299   1.34191   1.36362   1.38100   1.40004
 Alpha virt. eigenvalues --    1.40934   1.43075   1.46302   1.47092   1.48642
 Alpha virt. eigenvalues --    1.49454   1.50406   1.52363   1.52929   1.54035
 Alpha virt. eigenvalues --    1.54946   1.55824   1.57185   1.58253   1.60320
 Alpha virt. eigenvalues --    1.61369   1.63527   1.64823   1.65314   1.67183
 Alpha virt. eigenvalues --    1.67704   1.70120   1.70914   1.72621   1.73658
 Alpha virt. eigenvalues --    1.73909   1.75732   1.77794   1.78315   1.80178
 Alpha virt. eigenvalues --    1.80357   1.81917   1.83058   1.85157   1.86588
 Alpha virt. eigenvalues --    1.88745   1.89460   1.92716   1.93633   1.95271
 Alpha virt. eigenvalues --    1.95702   1.96846   1.98622   1.99873   2.00982
 Alpha virt. eigenvalues --    2.01265   2.04367   2.05286   2.06034   2.07889
 Alpha virt. eigenvalues --    2.09162   2.09953   2.10671   2.11480   2.13279
 Alpha virt. eigenvalues --    2.15445   2.15936   2.16594   2.18464   2.20641
 Alpha virt. eigenvalues --    2.21356   2.22110   2.23157   2.23395   2.25036
 Alpha virt. eigenvalues --    2.26087   2.26763   2.27103   2.28630   2.29287
 Alpha virt. eigenvalues --    2.31749   2.32777   2.33194   2.36848   2.37638
 Alpha virt. eigenvalues --    2.40034   2.40591   2.43670   2.44318   2.45324
 Alpha virt. eigenvalues --    2.46289   2.48293   2.49190   2.51618   2.51980
 Alpha virt. eigenvalues --    2.54817   2.56365   2.58324   2.58742   2.59943
 Alpha virt. eigenvalues --    2.60818   2.62362   2.65024   2.65586   2.67446
 Alpha virt. eigenvalues --    2.68545   2.68911   2.71176   2.72553   2.74120
 Alpha virt. eigenvalues --    2.74935   2.75969   2.77259   2.79063   2.80911
 Alpha virt. eigenvalues --    2.81724   2.82938   2.83794   2.84349   2.85943
 Alpha virt. eigenvalues --    2.88747   2.89448   2.90242   2.90667   2.91339
 Alpha virt. eigenvalues --    2.94001   2.94830   2.95769   2.96547   2.97359
 Alpha virt. eigenvalues --    2.99547   3.03668   3.05062   3.06605   3.07859
 Alpha virt. eigenvalues --    3.09144   3.10224   3.12196   3.13384   3.14673
 Alpha virt. eigenvalues --    3.17130   3.18947   3.21693   3.22922   3.25019
 Alpha virt. eigenvalues --    3.25731   3.26457   3.28847   3.29126   3.30286
 Alpha virt. eigenvalues --    3.31402   3.35285   3.38597   3.39223   3.40477
 Alpha virt. eigenvalues --    3.42424   3.42989   3.44368   3.45182   3.46306
 Alpha virt. eigenvalues --    3.46405   3.48846   3.49878   3.50825   3.51889
 Alpha virt. eigenvalues --    3.52558   3.53585   3.53754   3.56729   3.58511
 Alpha virt. eigenvalues --    3.59935   3.62146   3.63939   3.64815   3.65941
 Alpha virt. eigenvalues --    3.68056   3.69167   3.69542   3.70930   3.73975
 Alpha virt. eigenvalues --    3.75408   3.76449   3.77776   3.81369   3.82020
 Alpha virt. eigenvalues --    3.83564   3.85759   3.86671   3.88514   3.92582
 Alpha virt. eigenvalues --    3.93788   3.95154   3.99582   4.04119   4.04713
 Alpha virt. eigenvalues --    4.05878   4.07980   4.10914   4.12612   4.13950
 Alpha virt. eigenvalues --    4.14511   4.17905   4.20962   4.21084   4.22211
 Alpha virt. eigenvalues --    4.26242   4.31380   4.32626   4.36649   4.38001
 Alpha virt. eigenvalues --    4.40537   4.43801   4.48653   4.51053   4.53664
 Alpha virt. eigenvalues --    4.54299   4.56392   4.58742   4.59366   4.61172
 Alpha virt. eigenvalues --    4.64115   4.66140   4.70297   4.74348   4.74839
 Alpha virt. eigenvalues --    4.77450   4.81560   4.84624   4.88398   4.90054
 Alpha virt. eigenvalues --    4.91586   4.93520   4.97001   4.98555   4.99691
 Alpha virt. eigenvalues --    5.01161   5.02041   5.07492   5.09309   5.10029
 Alpha virt. eigenvalues --    5.11800   5.12753   5.16523   5.19242   5.20904
 Alpha virt. eigenvalues --    5.25062   5.26065   5.26501   5.30026   5.30905
 Alpha virt. eigenvalues --    5.34002   5.34820   5.35667   5.38079   5.38631
 Alpha virt. eigenvalues --    5.40661   5.42112   5.46481   5.46702   5.48976
 Alpha virt. eigenvalues --    5.49641   5.52978   5.57201   5.59744   5.60947
 Alpha virt. eigenvalues --    5.63849   5.68258   5.69185   5.72299   5.73117
 Alpha virt. eigenvalues --    5.75248   5.76409   5.80454   5.85891   5.87757
 Alpha virt. eigenvalues --    5.92121   5.94699   5.97664   6.01195   6.10710
 Alpha virt. eigenvalues --    6.16558   6.20418   6.25860   6.35952   6.36443
 Alpha virt. eigenvalues --    6.53631   6.58952   6.63522   6.67849   6.89957
 Alpha virt. eigenvalues --    6.90134   6.97030   7.00756   7.19117   7.30569
 Alpha virt. eigenvalues --    7.34111   7.46543  22.62015  22.71060  22.73367
 Alpha virt. eigenvalues --   22.76963  22.80198  23.51683  32.20081  32.22243
 Alpha virt. eigenvalues --   32.30943  32.74983  44.02112  44.08743
          Condensed to atoms (all electrons):
               1          2          3          4          5          6
     1  N    6.771158   0.368694   0.372488   0.056222   0.142760  -0.044784
     2  H    0.368694   0.441818  -0.028764  -0.001654  -0.033596   0.005963
     3  H    0.372488  -0.028764   0.442037  -0.000773  -0.019343  -0.010993
     4  H    0.056222  -0.001654  -0.000773   0.358836  -0.017517   0.001364
     5  C    0.142760  -0.033596  -0.019343  -0.017517   5.404372   0.404214
     6  H   -0.044784   0.005963  -0.010993   0.001364   0.404214   0.578484
     7  C   -0.050551  -0.005880  -0.002928   0.003811   0.223777  -0.035706
     8  H    0.008509   0.000339  -0.000453  -0.000235  -0.044723  -0.003119
     9  H   -0.010419   0.004958  -0.000163  -0.000099  -0.025084   0.008554
    10  C    0.010185  -0.000187   0.001699  -0.000246  -0.041799  -0.003586
    11  H    0.017671   0.003254  -0.000414   0.000006  -0.023993  -0.000814
    12  H   -0.001748   0.000353   0.000412  -0.000046   0.006051   0.003025
    13  C    0.001889  -0.000504   0.000175   0.000005  -0.014389   0.000735
    14  H   -0.000106   0.000051  -0.000006   0.000000   0.001673  -0.000015
    15  H    0.000066  -0.000001   0.000048  -0.000001   0.002237  -0.000247
    16  N    0.000117   0.000006   0.000008  -0.000000  -0.000977  -0.000071
    17  H   -0.000184   0.000110   0.000004  -0.000000   0.001142  -0.000057
    18  C    0.000017  -0.000009   0.000000  -0.000000  -0.000162   0.000004
    19  N   -0.000000   0.000002   0.000000   0.000000   0.000025  -0.000001
    20  H   -0.000000   0.000000  -0.000000   0.000000   0.000005   0.000000
    21  H   -0.000001   0.000005   0.000000  -0.000000   0.000028  -0.000001
    22  N   -0.000000   0.000000   0.000000  -0.000000  -0.000002  -0.000000
    23  H   -0.000000  -0.000000   0.000000   0.000000   0.000001  -0.000000
    24  H   -0.000000   0.000000   0.000000  -0.000000   0.000007  -0.000000
    25  C   -0.006154  -0.000621   0.000444  -0.034418   0.233531  -0.014147
    26  O   -0.045386   0.000868   0.000307   0.288906  -0.123786   0.001698
    27  O    0.005319  -0.000022  -0.000214   0.005001  -0.131376   0.002427
               7          8          9         10         11         12
     1  N   -0.050551   0.008509  -0.010419   0.010185   0.017671  -0.001748
     2  H   -0.005880   0.000339   0.004958  -0.000187   0.003254   0.000353
     3  H   -0.002928  -0.000453  -0.000163   0.001699  -0.000414   0.000412
     4  H    0.003811  -0.000235  -0.000099  -0.000246   0.000006  -0.000046
     5  C    0.223777  -0.044723  -0.025084  -0.041799  -0.023993   0.006051
     6  H   -0.035706  -0.003119   0.008554  -0.003586  -0.000814   0.003025
     7  C    5.320980   0.396073   0.389534   0.142283  -0.057345  -0.019903
     8  H    0.396073   0.532326  -0.016345  -0.017260   0.007849  -0.006897
     9  H    0.389534  -0.016345   0.599677  -0.058228  -0.005966   0.008351
    10  C    0.142283  -0.017260  -0.058228   5.297775   0.411743   0.355290
    11  H   -0.057345   0.007849  -0.005966   0.411743   0.667120  -0.042438
    12  H   -0.019903  -0.006897   0.008351   0.355290  -0.042438   0.625047
    13  C   -0.058805   0.005257   0.006391   0.149682  -0.032574  -0.025621
    14  H   -0.027632   0.003446  -0.001385   0.044309   0.012351  -0.013894
    15  H    0.050409  -0.002760   0.004714  -0.097086  -0.014810   0.018695
    16  N    0.011291   0.000127   0.000223  -0.097549  -0.005445   0.018717
    17  H   -0.002409  -0.000152  -0.000384   0.037787   0.019361  -0.000343
    18  C   -0.003360  -0.000089   0.000184  -0.006120  -0.001843  -0.000123
    19  N    0.001617  -0.000005  -0.000143   0.006372  -0.000280   0.000200
    20  H   -0.000143   0.000014  -0.000042   0.001387   0.000043  -0.000133
    21  H    0.000061  -0.000015  -0.000056   0.005493   0.001001   0.000090
    22  N   -0.000114   0.000000  -0.000001  -0.001169  -0.000032  -0.000127
    23  H    0.000076  -0.000002   0.000001  -0.000338  -0.000071   0.000377
    24  H   -0.000000  -0.000003  -0.000001   0.002420   0.000318   0.000224
    25  C   -0.018208  -0.002270  -0.002211  -0.004100  -0.000424   0.000690
    26  O   -0.001462   0.000947   0.002267  -0.000662  -0.000009   0.000012
    27  O    0.011578   0.012347   0.000309  -0.001351  -0.000079   0.000025
              13         14         15         16         17         18
     1  N    0.001889  -0.000106   0.000066   0.000117  -0.000184   0.000017
     2  H   -0.000504   0.000051  -0.000001   0.000006   0.000110  -0.000009
     3  H    0.000175  -0.000006   0.000048   0.000008   0.000004   0.000000
     4  H    0.000005   0.000000  -0.000001  -0.000000  -0.000000  -0.000000
     5  C   -0.014389   0.001673   0.002237  -0.000977   0.001142  -0.000162
     6  H    0.000735  -0.000015  -0.000247  -0.000071  -0.000057   0.000004
     7  C   -0.058805  -0.027632   0.050409   0.011291  -0.002409  -0.003360
     8  H    0.005257   0.003446  -0.002760   0.000127  -0.000152  -0.000089
     9  H    0.006391  -0.001385   0.004714   0.000223  -0.000384   0.000184
    10  C    0.149682   0.044309  -0.097086  -0.097549   0.037787  -0.006120
    11  H   -0.032574   0.012351  -0.014810  -0.005445   0.019361  -0.001843
    12  H   -0.025621  -0.013894   0.018695   0.018717  -0.000343  -0.000123
    13  C    5.203208   0.282144   0.344017   0.438375  -0.165798  -0.069655
    14  H    0.282144   0.677662  -0.069507  -0.055915   0.043802   0.036079
    15  H    0.344017  -0.069507   0.868361  -0.103666  -0.005519  -0.035553
    16  N    0.438375  -0.055915  -0.103666   6.823413   0.147109   0.512667
    17  H   -0.165798   0.043802  -0.005519   0.147109   1.005792  -0.274444
    18  C   -0.069655   0.036079  -0.035553   0.512667  -0.274444   5.698900
    19  N    0.016123  -0.002807   0.040994  -0.157288  -0.017257   0.352249
    20  H    0.006204   0.000529  -0.002743   0.007582  -0.001507  -0.076289
    21  H   -0.016271   0.008446   0.007099  -0.044500   0.127085  -0.268384
    22  N    0.006608   0.003211  -0.000282  -0.178545   0.025855   0.406635
    23  H    0.000765  -0.000488   0.000554   0.011595   0.002030  -0.073262
    24  H   -0.007909   0.002716   0.001203  -0.045772   0.102700  -0.245366
    25  C   -0.000312  -0.000137   0.000419  -0.000003   0.000008  -0.000003
    26  O    0.000004  -0.000001  -0.000001  -0.000000  -0.000000   0.000000
    27  O    0.000197  -0.000029  -0.000004  -0.000000   0.000000   0.000000
              19         20         21         22         23         24
     1  N   -0.000000  -0.000000  -0.000001  -0.000000  -0.000000  -0.000000
     2  H    0.000002   0.000000   0.000005   0.000000  -0.000000   0.000000
     3  H    0.000000  -0.000000   0.000000   0.000000   0.000000   0.000000
     4  H    0.000000   0.000000  -0.000000  -0.000000   0.000000  -0.000000
     5  C    0.000025   0.000005   0.000028  -0.000002   0.000001   0.000007
     6  H   -0.000001   0.000000  -0.000001  -0.000000  -0.000000  -0.000000
     7  C    0.001617  -0.000143   0.000061  -0.000114   0.000076  -0.000000
     8  H   -0.000005   0.000014  -0.000015   0.000000  -0.000002  -0.000003
     9  H   -0.000143  -0.000042  -0.000056  -0.000001   0.000001  -0.000001
    10  C    0.006372   0.001387   0.005493  -0.001169  -0.000338   0.002420
    11  H   -0.000280   0.000043   0.001001  -0.000032  -0.000071   0.000318
    12  H    0.000200  -0.000133   0.000090  -0.000127   0.000377   0.000224
    13  C    0.016123   0.006204  -0.016271   0.006608   0.000765  -0.007909
    14  H   -0.002807   0.000529   0.008446   0.003211  -0.000488   0.002716
    15  H    0.040994  -0.002743   0.007099  -0.000282   0.000554   0.001203
    16  N   -0.157288   0.007582  -0.044500  -0.178545   0.011595  -0.045772
    17  H   -0.017257  -0.001507   0.127085   0.025855   0.002030   0.102700
    18  C    0.352249  -0.076289  -0.268384   0.406635  -0.073262  -0.245366
    19  N    6.737073   0.392349   0.231511  -0.092617   0.012674  -0.026153
    20  H    0.392349   0.558448  -0.062490   0.010208  -0.001461  -0.002235
    21  H    0.231511  -0.062490   0.919007  -0.008946   0.000061   0.093764
    22  N   -0.092617   0.010208  -0.008946   6.693908   0.367065   0.276533
    23  H    0.012674  -0.001461   0.000061   0.367065   0.550404  -0.035141
    24  H   -0.026153  -0.002235   0.093764   0.276533  -0.035141   0.836007
    25  C    0.000000  -0.000000   0.000000  -0.000000   0.000000   0.000000
    26  O   -0.000000  -0.000000   0.000000  -0.000000  -0.000000   0.000000
    27  O    0.000000  -0.000000   0.000000   0.000000   0.000000   0.000000
              25         26         27
     1  N   -0.006154  -0.045386   0.005319
     2  H   -0.000621   0.000868  -0.000022
     3  H    0.000444   0.000307  -0.000214
     4  H   -0.034418   0.288906   0.005001
     5  C    0.233531  -0.123786  -0.131376
     6  H   -0.014147   0.001698   0.002427
     7  C   -0.018208  -0.001462   0.011578
     8  H   -0.002270   0.000947   0.012347
     9  H   -0.002211   0.002267   0.000309
    10  C   -0.004100  -0.000662  -0.001351
    11  H   -0.000424  -0.000009  -0.000079
    12  H    0.000690   0.000012   0.000025
    13  C   -0.000312   0.000004   0.000197
    14  H   -0.000137  -0.000001  -0.000029
    15  H    0.000419  -0.000001  -0.000004
    16  N   -0.000003  -0.000000  -0.000000
    17  H    0.000008  -0.000000   0.000000
    18  C   -0.000003   0.000000   0.000000
    19  N    0.000000  -0.000000   0.000000
    20  H   -0.000000  -0.000000  -0.000000
    21  H    0.000000   0.000000   0.000000
    22  N   -0.000000  -0.000000   0.000000
    23  H    0.000000  -0.000000   0.000000
    24  H    0.000000   0.000000   0.000000
    25  C    4.436021   0.392305   0.700652
    26  O    0.392305   7.953862  -0.085405
    27  O    0.700652  -0.085405   7.840552
 Mulliken charges:
               1
     1  N   -0.595762
     2  H    0.244814
     3  H    0.246427
     4  H    0.340839
     5  C    0.056923
     6  H    0.107074
     7  C   -0.267041
     8  H    0.127090
     9  H    0.095365
    10  C   -0.136745
    11  H    0.045820
    12  H    0.073714
    13  C   -0.069943
    14  H    0.055501
    15  H   -0.006635
    16  N   -0.281499
    17  H   -0.044731
    18  C    0.047928
    19  N   -0.494637
    20  H    0.170273
    21  H    0.007014
    22  N   -0.508188
    23  H    0.165161
    24  H    0.046688
    25  C    0.318938
    26  O   -0.384463
    27  O   -0.359926
 Sum of Mulliken charges =  -1.00000
 Mulliken charges with hydrogens summed into heavy atoms:
               1
     1  N   -0.104521
     5  C    0.163998
     7  C   -0.044586
    10  C   -0.017212
    13  C   -0.021077
    16  N   -0.326230
    18  C    0.047928
    19  N   -0.317350
    22  N   -0.296338
    25  C    0.318938
    26  O   -0.043624
    27  O   -0.359926
 Electronic spatial extent (au):  <R**2>=           4290.7430
 Charge=             -1.0000 electrons
 Dipole moment (field-independent basis, Debye):
    X=            -14.1005    Y=              5.7902    Z=              0.8462  Tot=             15.2665
 Quadrupole moment (field-independent basis, Debye-Ang):
   XX=           -197.7465   YY=            -83.5606   ZZ=            -78.4959
   XY=             -2.9043   XZ=              0.4217   YZ=             -1.5445
 Traceless Quadrupole moment (field-independent basis, Debye-Ang):
   XX=            -77.8122   YY=             36.3737   ZZ=             41.4385
   XY=             -2.9043   XZ=              0.4217   YZ=             -1.5445
 Octapole moment (field-independent basis, Debye-Ang**2):
  XXX=           -355.6370  YYY=             21.2603  ZZZ=             -3.1451  XYY=            -20.0891
  XXY=             93.8219  XXZ=             -8.8340  XZZ=            -33.4929  YZZ=              4.8548
  YYZ=              3.6449  XYZ=              4.4918
 Hexadecapole moment (field-independent basis, Debye-Ang**3):
 XXXX=          -8078.4313 YYYY=           -422.2334 ZZZZ=           -266.7405 XXXY=             51.2219
 XXXZ=            -26.9427 YYYX=            -24.8986 YYYZ=            -10.0809 ZZZX=            -33.9185
 ZZZY=             -0.9303 XXYY=          -1043.7201 XXZZ=           -947.1757 YYZZ=           -114.1364
 XXYZ=            -11.5074 YYXZ=             -7.1336 ZZXY=              2.8415
 N-N= 7.113412480539D+02 E-N=-2.854482522071D+03  KE= 6.044149372632D+02
 Unable to Open any file for archive entry.
 1\1\GINC-WATER\SP\RwB97XD\def2TZVP\C6H15N4O2(1-)\DAYALYZ\10-Jun-2025\0
 \\# wB97xD/Def2TZVP SCF(Tight) Int(Grid=299974)\\Displacement_-0.06\\-
 1,1\N,0,-2.449391,1.662106,0.312579\H,0,-1.892601,1.661727,1.158668\H,
 0,-2.080546,2.396181,-0.273303\H,0,-4.177396,1.141286,0.662011\C,0,-2.
 348291,0.354291,-0.351331\H,0,-2.34121,0.525036,-1.432399\C,0,-1.09445
 4,-0.433998,0.018947\H,0,-1.158799,-1.420651,-0.442292\H,0,-1.094388,-
 0.600813,1.103594\C,0,0.189472,0.269027,-0.401511\H,0,0.226249,1.27477
 5,0.033698\H,0,0.202187,0.403801,-1.488111\C,0,1.454987,-0.475381,0.01
 0983\H,0,1.500154,-1.448064,-0.487922\H,0,1.387951,-0.690828,1.097108\
 N,0,2.637813,0.252447,-0.370362\H,0,2.663477,1.14038,0.184221\C,0,3.91
 17,-0.45352,-0.159839\N,0,4.229464,-0.562312,1.251782\H,0,3.542917,-1.
 127561,1.736152\H,0,4.117688,0.369081,1.731839\N,0,4.954803,0.392004,-
 0.714869\H,0,4.676741,0.578368,-1.670812\H,0,4.936028,1.299049,-0.1974
 21\C,0,-3.634014,-0.44553,-0.088747\O,0,-4.586522,0.257947,0.524834\O,
 0,-3.789113,-1.585375,-0.425703\\Version=ES64L-G16RevC.01\State=1-A\HF
 =-607.1324307\RMSD=2.240e-09\Dipole=-5.547325,2.2779955,0.3373747\Quad
 rupole=-57.8520386,27.0486379,30.8034007,-2.149352,0.2981574,-1.156974
 4\PG=C01 [X(C6H15N4O2)]\\@
 The archive entry for this job was punched.


 Ideas are like rabbits. You get a couple and learn
 how to handle them, and pretty soon you have a dozen.
                                    -- John Steinbeck
 Job cpu time:       0 days  0 hours 49 minutes 19.8 seconds.
 Elapsed time:       0 days  0 hours 49 minutes 26.6 seconds.
 File lengths (MBytes):  RWF=    118 Int=      0 D2E=      0 Chk=     13 Scr=      1
 Normal termination of Gaussian 16 at Tue Jun 10 16:19:36 2025.
