 Entering Gaussian System, Link 0=g16
 Initial command:
 /opt/gaussian/g16/l1.exe "/scratch/Gau-1706.inp" -scrdir="/scratch/"
 Entering Link 1 = /opt/gaussian/g16/l1.exe PID=      1707.
  
 Copyright (c) 1988-2019, Gaussian, Inc.  All Rights Reserved.
  
 This is part of the Gaussian(R) 16 program.  It is based on
 the Gaussian(R) 09 system (copyright 2009, Gaussian, Inc.),
 the Gaussian(R) 03 system (copyright 2003, Gaussian, Inc.),
 the Gaussian(R) 98 system (copyright 1998, Gaussian, Inc.),
 the Gaussian(R) 94 system (copyright 1995, Gaussian, Inc.),
 the Gaussian 92(TM) system (copyright 1992, Gaussian, Inc.),
 the Gaussian 90(TM) system (copyright 1990, Gaussian, Inc.),
 the Gaussian 88(TM) system (copyright 1988, Gaussian, Inc.),
 the Gaussian 86(TM) system (copyright 1986, Carnegie Mellon
 University), and the Gaussian 82(TM) system (copyright 1983,
 Carnegie Mellon University). Gaussian is a federally registered
 trademark of Gaussian, Inc.
  
 This software contains proprietary and confidential information,
 including trade secrets, belonging to Gaussian, Inc.
  
 This software is provided under written license and may be
 used, copied, transmitted, or stored only in accord with that
 written license.
  
 The following legend is applicable only to US Government
 contracts under FAR:
  
                    RESTRICTED RIGHTS LEGEND
  
 Use, reproduction and disclosure by the US Government is
 subject to restrictions as set forth in subparagraphs (a)
 and (c) of the Commercial Computer Software - Restricted
 Rights clause in FAR 52.227-19.
  
 Gaussian, Inc.
 340 Quinnipiac St., Bldg. 40, Wallingford CT 06492
  
  
 ---------------------------------------------------------------
 Warning -- This program may not be used in any manner that
 competes with the business of Gaussian, Inc. or will provide
 assistance to any competitor of Gaussian, Inc.  The licensee
 of this program is prohibited from giving any competitor of
 Gaussian, Inc. access to this program.  By using this program,
 the user acknowledges that Gaussian, Inc. is engaged in the
 business of creating and licensing software in the field of
 computational chemistry and represents and warrants to the
 licensee that it is not a competitor of Gaussian, Inc. and that
 it will not use this program in any manner prohibited above.
 ---------------------------------------------------------------
  

 Cite this work as:
 Gaussian 16, Revision C.01,
 M. J. Frisch, G. W. Trucks, H. B. Schlegel, G. E. Scuseria, 
 M. A. Robb, J. R. Cheeseman, G. Scalmani, V. Barone, 
 G. A. Petersson, H. Nakatsuji, X. Li, M. Caricato, A. V. Marenich, 
 J. Bloino, B. G. Janesko, R. Gomperts, B. Mennucci, H. P. Hratchian, 
 J. V. Ortiz, A. F. Izmaylov, J. L. Sonnenberg, D. Williams-Young, 
 F. Ding, F. Lipparini, F. Egidi, J. Goings, B. Peng, A. Petrone, 
 T. Henderson, D. Ranasinghe, V. G. Zakrzewski, J. Gao, N. Rega, 
 G. Zheng, W. Liang, M. Hada, M. Ehara, K. Toyota, R. Fukuda, 
 J. Hasegawa, M. Ishida, T. Nakajima, Y. Honda, O. Kitao, H. Nakai, 
 T. Vreven, K. Throssell, J. A. Montgomery, Jr., J. E. Peralta, 
 F. Ogliaro, M. J. Bearpark, J. J. Heyd, E. N. Brothers, K. N. Kudin, 
 V. N. Staroverov, T. A. Keith, R. Kobayashi, J. Normand, 
 K. Raghavachari, A. P. Rendell, J. C. Burant, S. S. Iyengar, 
 J. Tomasi, M. Cossi, J. M. Millam, M. Klene, C. Adamo, R. Cammi, 
 J. W. Ochterski, R. L. Martin, K. Morokuma, O. Farkas, 
 J. B. Foresman, and D. J. Fox, Gaussian, Inc., Wallingford CT, 2019.
 
 ******************************************
 Gaussian 16:  ES64L-G16RevC.01  3-Jul-2019
                10-Jun-2025 
 ******************************************
 ---------------------------------------------
 # wB97xD/Def2TZVP SCF(Tight) Int(Grid=299974)
 ---------------------------------------------
 1/38=1,172=1/1;
 2/12=2,17=6,18=5,40=1/2;
 3/5=44,7=101,11=2,25=1,30=1,74=-58,75=299974/1,2,3;
 4//1;
 5/5=2,32=2,38=5/2;
 6/7=2,8=2,9=2,10=2,28=1/1;
 99/5=1,9=1/99;
 ----------------
 Displacement_0.1
 ----------------
 Symbolic Z-matrix:
 Charge = -1 Multiplicity = 1
 N                    -2.44939   1.66211   0.31258 
 H                    -1.8926    1.66173   1.15867 
 H                    -2.08055   2.39618  -0.2733 
 H                    -4.1774    1.14129   0.66201 
 C                    -2.34829   0.35429  -0.35133 
 H                    -2.34121   0.52504  -1.4324 
 C                    -1.09445  -0.434     0.01895 
 H                    -1.1588   -1.42065  -0.44229 
 H                    -1.09439  -0.60081   1.10359 
 C                     0.18947   0.26903  -0.40151 
 H                     0.22625   1.27477   0.0337 
 H                     0.20219   0.4038   -1.48811 
 C                     1.45499  -0.47538   0.01098 
 H                     1.50015  -1.44966  -0.48632 
 H                     1.38635  -0.69243   1.09711 
 N                     2.63781   0.25245  -0.37036 
 H                     2.66348   1.14038   0.18582 
 C                     3.9101   -0.45352  -0.15824 
 N                     4.22786  -0.56071   1.25978 
 H                     3.54932  -1.18516   1.67695 
 H                     4.15769   0.40108   1.66144 
 N                     4.9532    0.3856   -0.71167 
 H                     4.68954   0.65037  -1.65641 
 H                     4.94083   1.33905  -0.26142 
 C                    -3.63401  -0.44553  -0.08875 
 O                    -4.58652   0.25795   0.52483 
 O                    -3.78911  -1.58538  -0.4257 
 
                          Input orientation:                          
 ---------------------------------------------------------------------
 Center     Atomic      Atomic             Coordinates (Angstroms)
 Number     Number       Type             X           Y           Z
 ---------------------------------------------------------------------
      1          7           0       -2.449391    1.662106    0.312579
      2          1           0       -1.892601    1.661727    1.158668
      3          1           0       -2.080546    2.396181   -0.273303
      4          1           0       -4.177396    1.141286    0.662011
      5          6           0       -2.348291    0.354291   -0.351331
      6          1           0       -2.341210    0.525036   -1.432399
      7          6           0       -1.094454   -0.433998    0.018947
      8          1           0       -1.158799   -1.420651   -0.442292
      9          1           0       -1.094388   -0.600813    1.103594
     10          6           0        0.189472    0.269027   -0.401511
     11          1           0        0.226249    1.274775    0.033698
     12          1           0        0.202187    0.403801   -1.488111
     13          6           0        1.454987   -0.475381    0.010983
     14          1           0        1.500154   -1.449664   -0.486322
     15          1           0        1.386351   -0.692428    1.097108
     16          7           0        2.637813    0.252447   -0.370362
     17          1           0        2.663477    1.140380    0.185821
     18          6           0        3.910100   -0.453520   -0.158239
     19          7           0        4.227864   -0.560712    1.259782
     20          1           0        3.549317   -1.185161    1.676952
     21          1           0        4.157688    0.401081    1.661439
     22          7           0        4.953203    0.385604   -0.711669
     23          1           0        4.689541    0.650368   -1.656412
     24          1           0        4.940828    1.339049   -0.261421
     25          6           0       -3.634014   -0.445530   -0.088747
     26          8           0       -4.586522    0.257947    0.524834
     27          8           0       -3.789113   -1.585375   -0.425703
 ---------------------------------------------------------------------
                    Distance matrix (angstroms):
                    1          2          3          4          5
     1  N    0.000000
     2  H    1.012858   0.000000
     3  H    1.009044   1.620274   0.000000
     4  H    1.838303   2.395374   2.616554   0.000000
     5  C    1.470162   2.048692   2.060847   2.234244   0.000000
     6  H    2.085565   2.864777   2.216446   2.852700   1.094492
     7  C    2.513111   2.515565   3.011262   3.521304   1.526634
     8  H    3.426200   3.550013   3.930188   4.110345   2.138594
     9  H    2.753641   2.399847   3.442430   3.568591   2.145065
    10  C    3.068255   2.951068   3.113552   4.578368   2.539691
    11  H    2.717876   2.429982   2.583235   4.450246   2.761122
    12  H    3.443353   3.602215   3.264385   4.934334   2.792787
    13  C    4.461387   4.134097   4.563626   5.895862   3.909546
    14  H    5.091194   4.888510   5.259022   6.345570   4.252412
    15  H    4.568614   4.036999   4.841168   5.874274   4.140187
    16  N    5.322893   4.984842   5.183428   6.950029   4.987180
    17  H    5.140981   4.687865   4.928852   6.857427   5.101400
    18  C    6.718681   6.315050   6.634898   8.283949   6.313264
    19  N    7.100975   6.512262   7.133695   8.596658   6.832183
    20  H    6.778860   6.163429   6.951609   8.132930   6.423833
    21  H    6.860255   6.200645   6.829291   8.427359   6.810374
    22  N    7.581355   7.210526   7.328589   9.264226   7.310447
    23  H    7.474282   7.229946   7.127056   9.178162   7.163936
    24  H    7.419513   6.986882   7.100518   9.166998   7.355888
    25  C    2.450821   3.004845   3.243863   1.837631   1.536798
    26  O    2.565939   3.103152   3.389540   0.983102   2.405541
    27  O    3.589714   4.080522   4.335345   2.961176   2.417396
                    6          7          8          9         10
     6  H    0.000000
     7  C    2.140222   0.000000
     8  H    2.482762   1.091039   0.000000
     9  H    3.041934   1.097400   1.751013   0.000000
    10  C    2.744562   1.522989   2.162061   2.161078   0.000000
    11  H    3.050147   2.159717   3.067612   2.531124   1.096489
    12  H    2.546894   2.157408   2.504924   3.067131   1.095000
    13  C    4.182738   2.549789   2.816180   2.776481   1.525065
    14  H    4.421604   2.831760   2.659476   3.159118   2.163095
    15  H    4.666405   2.717280   3.062327   2.482439   2.145408
    16  N    5.098323   3.814785   4.149541   4.102429   2.448595
    17  H    5.295675   4.077813   4.643619   4.242123   2.687920
    18  C    6.454451   5.007728   5.168149   5.163218   3.797937
    19  N    7.181881   5.466516   5.714253   5.324694   4.444881
    20  H    6.876856   4.987769   5.168463   4.715315   4.209897
    21  H    7.198811   5.565980   6.000785   5.375806   4.474365
    22  N    7.331259   6.146520   6.379004   6.390740   4.775240
    23  H    7.035435   6.118601   6.321890   6.529695   4.687304
    24  H    7.420370   6.296581   6.697321   6.484610   4.872367
    25  C    2.102080   2.541869   2.683756   2.809891   3.902238
    26  O    2.990572   3.595726   3.937297   3.642449   4.865014
    27  O    2.750217   2.963877   2.635519   3.251101   4.389593
                   11         12         13         14         15
    11  H    0.000000
    12  H    1.753590   0.000000
    13  C    2.138541   2.142371   0.000000
    14  H    3.052183   2.474597   1.094797   0.000000
    15  H    2.519239   3.047510   1.109724   1.758866   0.000000
    16  N    2.650294   2.684128   1.440220   2.050584   2.147653
    17  H    2.445666   3.066357   2.025265   2.917777   2.412609
    18  C    4.073647   4.031399   2.461035   2.628266   2.828831
    19  N    4.570035   4.968629   3.042306   3.358499   2.849212
    20  H    4.449084   4.872956   2.768656   2.991452   2.292908
    21  H    4.343857   5.056250   3.285846   3.885952   3.032250
    22  N    4.867267   4.814078   3.674376   3.916955   4.142012
    23  H    4.813245   4.497273   3.809181   3.993925   4.505112
    24  H    4.724244   4.983390   3.939219   4.434607   4.313561
    25  C    4.228010   4.170854   5.090066   5.246526   5.164424
    26  O    4.943472   5.196629   6.107507   6.402031   6.075024
    27  O    4.951226   4.584322   5.378045   5.291355   5.468248
                   16         17         18         19         20
    16  N    0.000000
    17  H    1.048057   0.000000
    18  C    1.470408   2.052550   0.000000
    19  N    2.418028   2.548414   1.457137   0.000000
    20  H    2.662527   2.901090   2.008330   1.012123   0.000000
    21  H    2.541717   2.226360   2.025554   1.044652   1.698976
    22  N    2.344195   2.572551   1.448612   2.303964   3.184919
    23  H    2.453947   2.781882   2.017578   3.191246   3.972479
    24  H    2.548813   2.329339   2.070350   2.536034   3.473504
    25  C    6.316826   6.499915   7.544438   7.977526   7.434043
    26  O    7.279589   7.311368   8.553675   8.882778   8.342770
    27  O    6.684761   7.031331   7.786560   8.256071   7.644206
                   21         22         23         24         25
    21  H    0.000000
    22  N    2.502943   0.000000
    23  H    3.369443   1.015951   0.000000
    24  H    2.278263   1.054483   1.575889   0.000000
    25  C    8.030599   8.649804   8.540500   8.760277   0.000000
    26  O    8.818932   9.620374   9.537147   9.620674   1.333654
    27  O    8.453036   8.966305   8.854421   9.208209   1.198683
                   26         27
    26  O    0.000000
    27  O    2.221985   0.000000
 Stoichiometry    C6H15N4O2(1-)
 Framework group  C1[X(C6H15N4O2)]
 Deg. of freedom    75
 Full point group                 C1      NOp   1
 Largest Abelian subgroup         C1      NOp   1
 Largest concise Abelian subgroup C1      NOp   1
                         Standard orientation:                         
 ---------------------------------------------------------------------
 Center     Atomic      Atomic             Coordinates (Angstroms)
 Number     Number       Type             X           Y           Z
 ---------------------------------------------------------------------
      1          7           0       -2.449307    1.661134    0.318754
      2          1           0       -1.892685    1.657543    1.164945
      3          1           0       -2.080194    2.397271   -0.264366
      4          1           0       -4.177490    1.139399    0.665937
      5          6           0       -2.348348    0.355736   -0.349917
      6          1           0       -2.341018    0.530434   -1.430352
      7          6           0       -1.094748   -0.434164    0.017721
      8          1           0       -1.159207   -1.419110   -0.447138
      9          1           0       -1.094931   -0.604947    1.101750
     10          6           0        0.189407    0.270126   -0.399909
     11          1           0        0.226307    1.274268    0.038985
     12          1           0        0.202365    0.408873   -1.486006
     13          6           0        1.454686   -0.476050    0.010108
     14          1           0        1.499749   -1.448516   -0.490750
     15          1           0        1.385790   -0.697055    1.095418
     16          7           0        2.637739    0.252922   -0.368338
     17          1           0        2.663477    1.138808    0.191095
     18          6           0        3.909837   -0.454082   -0.158549
     19          7           0        4.227298   -0.566528    1.259133
     20          1           0        3.548539   -1.192358    1.673881
     21          1           0        4.157242    0.393803    1.664292
     22          7           0        4.953224    0.386844   -0.708700
     23          1           0        4.689804    0.655118   -1.652519
     24          1           0        4.940958    1.338637   -0.254968
     25          6           0       -3.634289   -0.444772   -0.090515
     26          8           0       -4.586772    0.256653    0.525448
     27          8           0       -3.789558   -1.583344   -0.431670
 ---------------------------------------------------------------------
 Rotational constants (GHZ):           2.7667467           0.2562368           0.2486380
 Standard basis: def2TZVP (5D, 7F)
 There are   522 symmetry adapted cartesian basis functions of A   symmetry.
 There are   462 symmetry adapted basis functions of A   symmetry.
   462 basis functions,   732 primitive gaussians,   522 cartesian basis functions
    48 alpha electrons       48 beta electrons
       nuclear repulsion energy       711.3316495620 Hartrees.
 NAtoms=   27 NActive=   27 NUniq=   27 SFac= 1.00D+00 NAtFMM=   60 NAOKFM=F Big=F
 Integral buffers will be    131072 words long.
 Raffenetti 2 integral format.
 Two-electron integral symmetry is turned on.
 Nuclear repulsion after empirical dispersion term =      711.3141453857 Hartrees.
 One-electron integrals computed using PRISM.
   1 Symmetry operations used in ECPInt.
 ECPInt:  NShTT=   18528 NPrTT=   54924 LenC2=   16268 LenP2D=   36013.
 LDataN:  DoStor=T MaxTD1= 6 Len=  172
 NBasis=   462 RedAO= T EigKep=  7.71D-05  NBF=   462
 NBsUse=   462 1.00D-06 EigRej= -1.00D+00 NBFU=   462
 ExpMin= 9.52D-02 ExpMax= 2.70D+04 ExpMxC= 9.22D+02 IAcc=4 IRadAn=    299974 AccDes= 0.00D+00
 Harris functional with IExCor= 4639 and IRadAn=  299974 diagonalized for initial guess.
 HarFok:  IExCor= 4639 AccDes= 0.00D+00 IRadAn=    299974 IDoV= 1 UseB2=F ITyADJ=14
 ICtDFT=  3500011 ScaDFX=  1.000000  1.000000  1.000000  1.000000
 FoFCou: FMM=F IPFlag=           0 FMFlag=      100000 FMFlg1=           0
         NFxFlg=           0 DoJE=T BraDBF=F KetDBF=T FulRan=T
         wScrn=  0.000000 ICntrl=       500 IOpCl=  0 I1Cent=   200000004 NGrid=           0
         NMat0=    1 NMatS0=      1 NMatT0=    0 NMatD0=    1 NMtDS0=    0 NMtDT0=    0
 Petite list used in FoFCou.
 Requested convergence on RMS density matrix=1.00D-08 within 128 cycles.
 Requested convergence on MAX density matrix=1.00D-06.
 Requested convergence on             energy=1.00D-06.
 No special actions if energy rises.
 Integral accuracy reduced to 1.0D-05 until final iterations.
 Initial convergence to 1.0D-05 achieved.  Increase integral accuracy.
 SCF Done:  E(RwB97XD) =  -607.131257866     A.U. after   17 cycles
            NFock= 17  Conv=0.23D-08     -V/T= 2.0045

 **********************************************************************

            Population analysis using the SCF Density.

 **********************************************************************

 Orbital symmetries:
       Occupied  (A) (A) (A) (A) (A) (A) (A) (A) (A) (A) (A) (A)
                 (A) (A) (A) (A) (A) (A) (A) (A) (A) (A) (A) (A)
                 (A) (A) (A) (A) (A) (A) (A) (A) (A) (A) (A) (A)
                 (A) (A) (A) (A) (A) (A) (A) (A) (A) (A) (A) (A)
       Virtual   (A) (A) (A) (A) (A) (A) (A) (A) (A) (A) (A) (A)
                 (A) (A) (A) (A) (A) (A) (A) (A) (A) (A) (A) (A)
                 (A) (A) (A) (A) (A) (A) (A) (A) (A) (A) (A) (A)
                 (A) (A) (A) (A) (A) (A) (A) (A) (A) (A) (A) (A)
                 (A) (A) (A) (A) (A) (A) (A) (A) (A) (A) (A) (A)
                 (A) (A) (A) (A) (A) (A) (A) (A) (A) (A) (A) (A)
                 (A) (A) (A) (A) (A) (A) (A) (A) (A) (A) (A) (A)
                 (A) (A) (A) (A) (A) (A) (A) (A) (A) (A) (A) (A)
                 (A) (A) (A) (A) (A) (A) (A) (A) (A) (A) (A) (A)
                 (A) (A) (A) (A) (A) (A) (A) (A) (A) (A) (A) (A)
                 (A) (A) (A) (A) (A) (A) (A) (A) (A) (A) (A) (A)
                 (A) (A) (A) (A) (A) (A) (A) (A) (A) (A) (A) (A)
                 (A) (A) (A) (A) (A) (A) (A) (A) (A) (A) (A) (A)
                 (A) (A) (A) (A) (A) (A) (A) (A) (A) (A) (A) (A)
                 (A) (A) (A) (A) (A) (A) (A) (A) (A) (A) (A) (A)
                 (A) (A) (A) (A) (A) (A) (A) (A) (A) (A) (A) (A)
                 (A) (A) (A) (A) (A) (A) (A) (A) (A) (A) (A) (A)
                 (A) (A) (A) (A) (A) (A) (A) (A) (A) (A) (A) (A)
                 (A) (A) (A) (A) (A) (A) (A) (A) (A) (A) (A) (A)
                 (A) (A) (A) (A) (A) (A) (A) (A) (A) (A) (A) (A)
                 (A) (A) (A) (A) (A) (A) (A) (A) (A) (A) (A) (A)
                 (A) (A) (A) (A) (A) (A) (A) (A) (A) (A) (A) (A)
                 (A) (A) (A) (A) (A) (A) (A) (A) (A) (A) (A) (A)
                 (A) (A) (A) (A) (A) (A) (A) (A) (A) (A) (A) (A)
                 (A) (A) (A) (A) (A) (A) (A) (A) (A) (A) (A) (A)
                 (A) (A) (A) (A) (A) (A) (A) (A) (A) (A) (A) (A)
                 (A) (A) (A) (A) (A) (A) (A) (A) (A) (A) (A) (A)
                 (A) (A) (A) (A) (A) (A) (A) (A) (A) (A) (A) (A)
                 (A) (A) (A) (A) (A) (A) (A) (A) (A) (A) (A) (A)
                 (A) (A) (A) (A) (A) (A) (A) (A) (A) (A) (A) (A)
                 (A) (A) (A) (A) (A) (A) (A) (A) (A) (A) (A) (A)
                 (A) (A) (A) (A) (A) (A) (A) (A) (A) (A) (A) (A)
                 (A) (A) (A) (A) (A) (A) (A) (A) (A) (A) (A) (A)
                 (A) (A) (A) (A) (A) (A) (A) (A) (A) (A) (A) (A)
                 (A) (A) (A) (A) (A) (A)
 The electronic state is 1-A.
 Alpha  occ. eigenvalues --  -19.20423 -19.14477 -14.37148 -14.23920 -14.22521
 Alpha  occ. eigenvalues --  -14.22259 -10.32615 -10.25469 -10.19394 -10.16794
 Alpha  occ. eigenvalues --  -10.15873 -10.10009  -1.12373  -1.03770  -0.94112
 Alpha  occ. eigenvalues --   -0.85542  -0.80064  -0.77100  -0.73916  -0.71251
 Alpha  occ. eigenvalues --   -0.62983  -0.60596  -0.56975  -0.54601  -0.51434
 Alpha  occ. eigenvalues --   -0.48816  -0.47882  -0.45818  -0.45277  -0.43369
 Alpha  occ. eigenvalues --   -0.41620  -0.40415  -0.39089  -0.37255  -0.36371
 Alpha  occ. eigenvalues --   -0.34729  -0.33972  -0.32685  -0.31885  -0.31168
 Alpha  occ. eigenvalues --   -0.30433  -0.28867  -0.27997  -0.26201  -0.18559
 Alpha  occ. eigenvalues --   -0.15587  -0.11881  -0.03621
 Alpha virt. eigenvalues --    0.15789   0.18120   0.20616   0.22633   0.23417
 Alpha virt. eigenvalues --    0.25099   0.25778   0.26600   0.27641   0.28029
 Alpha virt. eigenvalues --    0.29979   0.31012   0.32226   0.32765   0.33050
 Alpha virt. eigenvalues --    0.35044   0.35162   0.35321   0.36258   0.37533
 Alpha virt. eigenvalues --    0.37811   0.39300   0.40657   0.42102   0.43976
 Alpha virt. eigenvalues --    0.43979   0.44768   0.45594   0.46231   0.47419
 Alpha virt. eigenvalues --    0.47754   0.48621   0.49473   0.50862   0.51330
 Alpha virt. eigenvalues --    0.52492   0.53392   0.54128   0.54859   0.55466
 Alpha virt. eigenvalues --    0.56108   0.56166   0.57312   0.57715   0.59346
 Alpha virt. eigenvalues --    0.59560   0.60758   0.61413   0.61781   0.62372
 Alpha virt. eigenvalues --    0.62778   0.63819   0.64047   0.64791   0.65265
 Alpha virt. eigenvalues --    0.65714   0.66228   0.66888   0.67810   0.68976
 Alpha virt. eigenvalues --    0.69622   0.70173   0.70922   0.71875   0.72003
 Alpha virt. eigenvalues --    0.72192   0.73299   0.73844   0.74403   0.75418
 Alpha virt. eigenvalues --    0.77335   0.78207   0.78748   0.79332   0.80682
 Alpha virt. eigenvalues --    0.82148   0.82481   0.83641   0.84503   0.85996
 Alpha virt. eigenvalues --    0.86352   0.88831   0.90477   0.91053   0.92907
 Alpha virt. eigenvalues --    0.94841   0.96355   0.97932   0.99824   1.00905
 Alpha virt. eigenvalues --    1.02170   1.03727   1.06103   1.06367   1.07956
 Alpha virt. eigenvalues --    1.09032   1.09713   1.10172   1.13267   1.15447
 Alpha virt. eigenvalues --    1.17081   1.17375   1.18702   1.21162   1.22784
 Alpha virt. eigenvalues --    1.23752   1.26294   1.28246   1.29727   1.30385
 Alpha virt. eigenvalues --    1.33333   1.33902   1.36457   1.38031   1.40654
 Alpha virt. eigenvalues --    1.41190   1.43184   1.46346   1.47588   1.48707
 Alpha virt. eigenvalues --    1.49424   1.50948   1.52392   1.52703   1.53927
 Alpha virt. eigenvalues --    1.55119   1.55919   1.57210   1.58176   1.60417
 Alpha virt. eigenvalues --    1.61376   1.63398   1.64806   1.65612   1.66638
 Alpha virt. eigenvalues --    1.67332   1.70199   1.70814   1.72335   1.73542
 Alpha virt. eigenvalues --    1.73805   1.75760   1.77726   1.78318   1.79954
 Alpha virt. eigenvalues --    1.80325   1.81920   1.82776   1.85169   1.86764
 Alpha virt. eigenvalues --    1.88772   1.89484   1.92682   1.93498   1.95350
 Alpha virt. eigenvalues --    1.95563   1.97212   1.98704   1.99335   2.00928
 Alpha virt. eigenvalues --    2.02970   2.03996   2.05266   2.06027   2.08087
 Alpha virt. eigenvalues --    2.09449   2.09939   2.10769   2.11467   2.13555
 Alpha virt. eigenvalues --    2.15799   2.16032   2.16608   2.18260   2.20277
 Alpha virt. eigenvalues --    2.21200   2.22071   2.22447   2.23468   2.24988
 Alpha virt. eigenvalues --    2.25625   2.26924   2.27105   2.28720   2.29260
 Alpha virt. eigenvalues --    2.31719   2.32972   2.33815   2.36908   2.37391
 Alpha virt. eigenvalues --    2.40060   2.40422   2.43406   2.44308   2.45370
 Alpha virt. eigenvalues --    2.45898   2.48408   2.48620   2.51380   2.52342
 Alpha virt. eigenvalues --    2.54572   2.56299   2.57789   2.58531   2.60116
 Alpha virt. eigenvalues --    2.60937   2.62171   2.64717   2.65625   2.68170
 Alpha virt. eigenvalues --    2.69022   2.69069   2.70202   2.71431   2.72835
 Alpha virt. eigenvalues --    2.75191   2.76413   2.77630   2.79127   2.79971
 Alpha virt. eigenvalues --    2.81973   2.83166   2.83683   2.84123   2.86450
 Alpha virt. eigenvalues --    2.88930   2.89706   2.90273   2.90790   2.91063
 Alpha virt. eigenvalues --    2.94592   2.94780   2.95676   2.96366   2.97289
 Alpha virt. eigenvalues --    2.99920   3.04037   3.05101   3.06489   3.08094
 Alpha virt. eigenvalues --    3.09165   3.10412   3.12218   3.13399   3.14575
 Alpha virt. eigenvalues --    3.16863   3.18768   3.21365   3.22011   3.25188
 Alpha virt. eigenvalues --    3.25565   3.26148   3.28370   3.28934   3.29708
 Alpha virt. eigenvalues --    3.31319   3.32344   3.37891   3.39020   3.41324
 Alpha virt. eigenvalues --    3.42151   3.42798   3.45064   3.45175   3.46266
 Alpha virt. eigenvalues --    3.46700   3.48764   3.49887   3.51301   3.51817
 Alpha virt. eigenvalues --    3.52640   3.53648   3.54739   3.56640   3.59084
 Alpha virt. eigenvalues --    3.61070   3.62860   3.64090   3.64858   3.66034
 Alpha virt. eigenvalues --    3.68128   3.68912   3.69611   3.70765   3.74079
 Alpha virt. eigenvalues --    3.75419   3.76589   3.77628   3.81453   3.82020
 Alpha virt. eigenvalues --    3.83394   3.85617   3.85771   3.88273   3.91856
 Alpha virt. eigenvalues --    3.93886   3.95060   3.99554   4.04139   4.04831
 Alpha virt. eigenvalues --    4.06181   4.08033   4.11458   4.12362   4.13495
 Alpha virt. eigenvalues --    4.14106   4.18031   4.20613   4.21196   4.21827
 Alpha virt. eigenvalues --    4.26328   4.31451   4.32807   4.36512   4.37637
 Alpha virt. eigenvalues --    4.40520   4.43691   4.48530   4.50273   4.53587
 Alpha virt. eigenvalues --    4.53773   4.58319   4.58745   4.59795   4.62196
 Alpha virt. eigenvalues --    4.64132   4.66394   4.70399   4.74364   4.74698
 Alpha virt. eigenvalues --    4.77617   4.81550   4.84575   4.88231   4.89038
 Alpha virt. eigenvalues --    4.91633   4.93487   4.97118   4.99079   4.99255
 Alpha virt. eigenvalues --    5.01196   5.02317   5.07332   5.09638   5.10167
 Alpha virt. eigenvalues --    5.11897   5.12917   5.16743   5.18448   5.20524
 Alpha virt. eigenvalues --    5.24071   5.26049   5.28580   5.29514   5.30774
 Alpha virt. eigenvalues --    5.34049   5.34967   5.35219   5.38092   5.38550
 Alpha virt. eigenvalues --    5.41542   5.42440   5.44723   5.46682   5.48889
 Alpha virt. eigenvalues --    5.49618   5.52967   5.56490   5.59507   5.61418
 Alpha virt. eigenvalues --    5.63841   5.68263   5.70719   5.71773   5.72334
 Alpha virt. eigenvalues --    5.73834   5.76230   5.80419   5.87181   5.87747
 Alpha virt. eigenvalues --    5.92786   5.94615   5.96938   6.01193   6.10707
 Alpha virt. eigenvalues --    6.16578   6.20095   6.25856   6.35949   6.36439
 Alpha virt. eigenvalues --    6.53629   6.58948   6.63518   6.67845   6.89954
 Alpha virt. eigenvalues --    6.90131   6.97028   7.00753   7.19115   7.30568
 Alpha virt. eigenvalues --    7.34109   7.46540  22.62028  22.71363  22.73362
 Alpha virt. eigenvalues --   22.76935  22.79859  23.51680  32.20079  32.22090
 Alpha virt. eigenvalues --   32.30522  32.74865  44.02109  44.08739
          Condensed to atoms (all electrons):
               1          2          3          4          5          6
     1  N    6.771195   0.368702   0.372496   0.056213   0.142701  -0.044813
     2  H    0.368702   0.441749  -0.028763  -0.001652  -0.033601   0.005969
     3  H    0.372496  -0.028763   0.442058  -0.000773  -0.019379  -0.010993
     4  H    0.056213  -0.001652  -0.000773   0.358820  -0.017511   0.001364
     5  C    0.142701  -0.033601  -0.019379  -0.017511   5.403998   0.404405
     6  H   -0.044813   0.005969  -0.010993   0.001364   0.404405   0.578468
     7  C   -0.050417  -0.005909  -0.002912   0.003811   0.223194  -0.035807
     8  H    0.008512   0.000338  -0.000453  -0.000234  -0.044712  -0.003130
     9  H   -0.010422   0.004965  -0.000160  -0.000098  -0.024874   0.008539
    10  C    0.010004  -0.000129   0.001701  -0.000243  -0.040694  -0.003575
    11  H    0.017717   0.003232  -0.000424   0.000007  -0.024018  -0.000809
    12  H   -0.001731   0.000346   0.000415  -0.000046   0.005919   0.003028
    13  C    0.001920  -0.000492   0.000179   0.000005  -0.014476   0.000715
    14  H   -0.000105   0.000051  -0.000006   0.000000   0.001666  -0.000008
    15  H    0.000066  -0.000011   0.000047  -0.000002   0.002178  -0.000245
    16  N    0.000117   0.000005   0.000008  -0.000000  -0.000984  -0.000071
    17  H   -0.000182   0.000109   0.000004  -0.000001   0.001137  -0.000055
    18  C    0.000017  -0.000009   0.000000  -0.000000  -0.000146   0.000003
    19  N   -0.000000   0.000002  -0.000000   0.000000   0.000025  -0.000001
    20  H   -0.000000   0.000000  -0.000000   0.000000   0.000007   0.000000
    21  H   -0.000001   0.000004   0.000000  -0.000000   0.000027  -0.000001
    22  N   -0.000000   0.000000   0.000000  -0.000000  -0.000002  -0.000000
    23  H   -0.000000  -0.000000   0.000000   0.000000   0.000000  -0.000000
    24  H   -0.000000   0.000000   0.000000  -0.000000   0.000007  -0.000000
    25  C   -0.006117  -0.000628   0.000451  -0.034423   0.233365  -0.014197
    26  O   -0.045382   0.000868   0.000307   0.288912  -0.123782   0.001700
    27  O    0.005318  -0.000022  -0.000214   0.005001  -0.131368   0.002424
               7          8          9         10         11         12
     1  N   -0.050417   0.008512  -0.010422   0.010004   0.017717  -0.001731
     2  H   -0.005909   0.000338   0.004965  -0.000129   0.003232   0.000346
     3  H   -0.002912  -0.000453  -0.000160   0.001701  -0.000424   0.000415
     4  H    0.003811  -0.000234  -0.000098  -0.000243   0.000007  -0.000046
     5  C    0.223194  -0.044712  -0.024874  -0.040694  -0.024018   0.005919
     6  H   -0.035807  -0.003130   0.008539  -0.003575  -0.000809   0.003028
     7  C    5.317152   0.396313   0.389940   0.144549  -0.056996  -0.019889
     8  H    0.396313   0.532463  -0.016410  -0.017725   0.007857  -0.006876
     9  H    0.389940  -0.016410   0.599442  -0.058578  -0.006024   0.008387
    10  C    0.144549  -0.017725  -0.058578   5.299117   0.411756   0.355479
    11  H   -0.056996   0.007857  -0.006024   0.411756   0.667164  -0.042702
    12  H   -0.019889  -0.006876   0.008387   0.355479  -0.042702   0.625086
    13  C   -0.055807   0.005407   0.006187   0.139360  -0.032263  -0.024983
    14  H   -0.027856   0.003411  -0.001417   0.046533   0.012258  -0.014376
    15  H    0.047761  -0.002728   0.005062  -0.092535  -0.014939   0.018599
    16  N    0.011486   0.000141   0.000217  -0.101367  -0.005248   0.018909
    17  H   -0.002457  -0.000163  -0.000380   0.040677   0.018687  -0.000594
    18  C   -0.002584  -0.000092   0.000143  -0.005877  -0.001774  -0.000106
    19  N    0.001450  -0.000005  -0.000134   0.007031  -0.000283   0.000203
    20  H   -0.000158   0.000011  -0.000044   0.001675   0.000080  -0.000123
    21  H    0.000031  -0.000014  -0.000051   0.005743   0.000940   0.000072
    22  N   -0.000107  -0.000000  -0.000001  -0.001161  -0.000064  -0.000142
    23  H    0.000073  -0.000002   0.000001  -0.000422  -0.000088   0.000350
    24  H    0.000003  -0.000003  -0.000001   0.002482   0.000298   0.000226
    25  C   -0.018196  -0.002242  -0.002177  -0.004031  -0.000424   0.000701
    26  O   -0.001459   0.000947   0.002264  -0.000664  -0.000009   0.000012
    27  O    0.011586   0.012345   0.000307  -0.001353  -0.000079   0.000025
              13         14         15         16         17         18
     1  N    0.001920  -0.000105   0.000066   0.000117  -0.000182   0.000017
     2  H   -0.000492   0.000051  -0.000011   0.000005   0.000109  -0.000009
     3  H    0.000179  -0.000006   0.000047   0.000008   0.000004   0.000000
     4  H    0.000005   0.000000  -0.000002  -0.000000  -0.000001  -0.000000
     5  C   -0.014476   0.001666   0.002178  -0.000984   0.001137  -0.000146
     6  H    0.000715  -0.000008  -0.000245  -0.000071  -0.000055   0.000003
     7  C   -0.055807  -0.027856   0.047761   0.011486  -0.002457  -0.002584
     8  H    0.005407   0.003411  -0.002728   0.000141  -0.000163  -0.000092
     9  H    0.006187  -0.001417   0.005062   0.000217  -0.000380   0.000143
    10  C    0.139360   0.046533  -0.092535  -0.101367   0.040677  -0.005877
    11  H   -0.032263   0.012258  -0.014939  -0.005248   0.018687  -0.001774
    12  H   -0.024983  -0.014376   0.018599   0.018909  -0.000594  -0.000106
    13  C    5.212199   0.282009   0.344680   0.435877  -0.165645  -0.066411
    14  H    0.282009   0.678308  -0.071432  -0.055250   0.043733   0.034718
    15  H    0.344680  -0.071432   0.861301  -0.103495  -0.005774  -0.030814
    16  N    0.435877  -0.055250  -0.103495   6.809245   0.148488   0.528494
    17  H   -0.165645   0.043733  -0.005774   0.148488   1.011642  -0.287676
    18  C   -0.066411   0.034718  -0.030814   0.528494  -0.287676   5.700129
    19  N    0.013481  -0.003158   0.039990  -0.164028  -0.015502   0.349639
    20  H    0.003894   0.001518  -0.001844   0.004535   0.000558  -0.072516
    21  H   -0.015742   0.008204   0.006236  -0.043845   0.128853  -0.282050
    22  N    0.007565   0.003334  -0.000247  -0.171914   0.025715   0.420778
    23  H    0.001450  -0.000622   0.000482   0.015582   0.000791  -0.079869
    24  H   -0.007683   0.002654   0.001199  -0.043619   0.104359  -0.253907
    25  C   -0.000293  -0.000139   0.000413  -0.000002   0.000008  -0.000003
    26  O    0.000004  -0.000001  -0.000001  -0.000000  -0.000000   0.000000
    27  O    0.000197  -0.000029  -0.000004  -0.000000   0.000000   0.000000
              19         20         21         22         23         24
     1  N   -0.000000  -0.000000  -0.000001  -0.000000  -0.000000  -0.000000
     2  H    0.000002   0.000000   0.000004   0.000000  -0.000000   0.000000
     3  H   -0.000000  -0.000000   0.000000   0.000000   0.000000   0.000000
     4  H    0.000000   0.000000  -0.000000  -0.000000   0.000000  -0.000000
     5  C    0.000025   0.000007   0.000027  -0.000002   0.000000   0.000007
     6  H   -0.000001   0.000000  -0.000001  -0.000000  -0.000000  -0.000000
     7  C    0.001450  -0.000158   0.000031  -0.000107   0.000073   0.000003
     8  H   -0.000005   0.000011  -0.000014  -0.000000  -0.000002  -0.000003
     9  H   -0.000134  -0.000044  -0.000051  -0.000001   0.000001  -0.000001
    10  C    0.007031   0.001675   0.005743  -0.001161  -0.000422   0.002482
    11  H   -0.000283   0.000080   0.000940  -0.000064  -0.000088   0.000298
    12  H    0.000203  -0.000123   0.000072  -0.000142   0.000350   0.000226
    13  C    0.013481   0.003894  -0.015742   0.007565   0.001450  -0.007683
    14  H   -0.003158   0.001518   0.008204   0.003334  -0.000622   0.002654
    15  H    0.039990  -0.001844   0.006236  -0.000247   0.000482   0.001199
    16  N   -0.164028   0.004535  -0.043845  -0.171914   0.015582  -0.043619
    17  H   -0.015502   0.000558   0.128853   0.025715   0.000791   0.104359
    18  C    0.349639  -0.072516  -0.282050   0.420778  -0.079869  -0.253907
    19  N    6.740560   0.387367   0.246465  -0.094577   0.013870  -0.025693
    20  H    0.387367   0.538604  -0.045993   0.009402  -0.001472  -0.000934
    21  H    0.246465  -0.045993   0.884305  -0.007248  -0.000945   0.096002
    22  N   -0.094577   0.009402  -0.007248   6.682960   0.365956   0.262002
    23  H    0.013870  -0.001472  -0.000945   0.365956   0.571802  -0.045809
    24  H   -0.025693  -0.000934   0.096002   0.262002  -0.045809   0.876470
    25  C    0.000000  -0.000000   0.000000  -0.000000   0.000000   0.000000
    26  O   -0.000000  -0.000000   0.000000  -0.000000  -0.000000   0.000000
    27  O    0.000000  -0.000000   0.000000   0.000000   0.000000   0.000000
              25         26         27
     1  N   -0.006117  -0.045382   0.005318
     2  H   -0.000628   0.000868  -0.000022
     3  H    0.000451   0.000307  -0.000214
     4  H   -0.034423   0.288912   0.005001
     5  C    0.233365  -0.123782  -0.131368
     6  H   -0.014197   0.001700   0.002424
     7  C   -0.018196  -0.001459   0.011586
     8  H   -0.002242   0.000947   0.012345
     9  H   -0.002177   0.002264   0.000307
    10  C   -0.004031  -0.000664  -0.001353
    11  H   -0.000424  -0.000009  -0.000079
    12  H    0.000701   0.000012   0.000025
    13  C   -0.000293   0.000004   0.000197
    14  H   -0.000139  -0.000001  -0.000029
    15  H    0.000413  -0.000001  -0.000004
    16  N   -0.000002  -0.000000  -0.000000
    17  H    0.000008  -0.000000   0.000000
    18  C   -0.000003   0.000000   0.000000
    19  N    0.000000  -0.000000   0.000000
    20  H   -0.000000  -0.000000  -0.000000
    21  H    0.000000   0.000000   0.000000
    22  N   -0.000000  -0.000000   0.000000
    23  H    0.000000  -0.000000   0.000000
    24  H    0.000000   0.000000   0.000000
    25  C    4.436026   0.392318   0.700643
    26  O    0.392318   7.953816  -0.085403
    27  O    0.700643  -0.085403   7.840564
 Mulliken charges:
               1
     1  N   -0.595807
     2  H    0.244878
     3  H    0.246411
     4  H    0.340852
     5  C    0.056920
     6  H    0.107091
     7  C   -0.266797
     8  H    0.127044
     9  H    0.095318
    10  C   -0.137753
    11  H    0.046148
    12  H    0.073811
    13  C   -0.071335
    14  H    0.056003
    15  H   -0.003946
    16  N   -0.283281
    17  H   -0.046334
    18  C    0.049911
    19  N   -0.496702
    20  H    0.175430
    21  H    0.019008
    22  N   -0.502250
    23  H    0.158869
    24  H    0.031947
    25  C    0.318947
    26  O   -0.384446
    27  O   -0.359936
 Sum of Mulliken charges =  -1.00000
 Mulliken charges with hydrogens summed into heavy atoms:
               1
     1  N   -0.104518
     5  C    0.164011
     7  C   -0.044435
    10  C   -0.017794
    13  C   -0.019278
    16  N   -0.329615
    18  C    0.049911
    19  N   -0.302264
    22  N   -0.311434
    25  C    0.318947
    26  O   -0.043595
    27  O   -0.359936
 Electronic spatial extent (au):  <R**2>=           4291.5643
 Charge=             -1.0000 electrons
 Dipole moment (field-independent basis, Debye):
    X=            -14.1042    Y=              5.7843    Z=              0.8647  Tot=             15.2687
 Quadrupole moment (field-independent basis, Debye-Ang):
   XX=           -197.7917   YY=            -83.2279   ZZ=            -78.8558
   XY=             -2.8340   XZ=              0.3846   YZ=             -1.7943
 Traceless Quadrupole moment (field-independent basis, Debye-Ang):
   XX=            -77.8332   YY=             36.7306   ZZ=             41.1026
   XY=             -2.8340   XZ=              0.3846   YZ=             -1.7943
 Octapole moment (field-independent basis, Debye-Ang**2):
  XXX=           -356.0404  YYY=             20.6264  ZZZ=             -3.3183  XYY=            -19.0005
  XXY=             94.3954  XXZ=             -8.0935  XZZ=            -34.6508  YZZ=              5.3685
  YYZ=              3.8561  XYZ=              3.5481
 Hexadecapole moment (field-independent basis, Debye-Ang**3):
 XXXX=          -8084.5410 YYYY=           -423.2728 ZZZZ=           -267.7738 XXXY=             54.3516
 XXXZ=            -25.4366 YYYX=            -26.9404 YYYZ=            -11.1366 ZZZX=            -34.0885
 ZZZY=             -0.5541 XXYY=          -1039.7608 XXZZ=           -951.2546 YYZZ=           -113.1625
 XXYZ=            -16.8065 YYXZ=             -7.1987 ZZXY=              4.9658
 N-N= 7.113141453857D+02 E-N=-2.854416077586D+03  KE= 6.044071912537D+02
 Unable to Open any file for archive entry.
 1\1\GINC-WATER\SP\RwB97XD\def2TZVP\C6H15N4O2(1-)\DAYALYZ\10-Jun-2025\0
 \\# wB97xD/Def2TZVP SCF(Tight) Int(Grid=299974)\\Displacement_0.1\\-1,
 1\N,0,-2.449391,1.662106,0.312579\H,0,-1.892601,1.661727,1.158668\H,0,
 -2.080546,2.396181,-0.273303\H,0,-4.177396,1.141286,0.662011\C,0,-2.34
 8291,0.354291,-0.351331\H,0,-2.34121,0.525036,-1.432399\C,0,-1.094454,
 -0.433998,0.018947\H,0,-1.158799,-1.420651,-0.442292\H,0,-1.094388,-0.
 600813,1.103594\C,0,0.189472,0.269027,-0.401511\H,0,0.226249,1.274775,
 0.033698\H,0,0.202187,0.403801,-1.488111\C,0,1.454987,-0.475381,0.0109
 83\H,0,1.500154,-1.449664,-0.486322\H,0,1.386351,-0.692428,1.097108\N,
 0,2.637813,0.252447,-0.370362\H,0,2.663477,1.14038,0.185821\C,0,3.9101
 ,-0.45352,-0.158239\N,0,4.227864,-0.560712,1.259782\H,0,3.549317,-1.18
 5161,1.676952\H,0,4.157688,0.401081,1.661439\N,0,4.953203,0.385604,-0.
 711669\H,0,4.689541,0.650368,-1.656412\H,0,4.940828,1.339049,-0.261421
 \C,0,-3.634014,-0.44553,-0.088747\O,0,-4.586522,0.257947,0.524834\O,0,
 -3.789113,-1.585375,-0.425703\\Version=ES64L-G16RevC.01\State=1-A\HF=-
 607.1312579\RMSD=2.311e-09\Dipole=-5.5494369,2.2757784,0.3329695\Quadr
 upole=-57.866085,27.2976772,30.5684078,-2.1239131,0.3114425,-1.3216349
 \PG=C01 [X(C6H15N4O2)]\\@
 The archive entry for this job was punched.


 THE MOST SERIOUS THREAT TO THE SURVIVAL OF MANKIND IS NOT NOW
 IGNORANCE IN THE TRADITIONAL SENSE,
 BUT A MORALLY NEUTRAL, AN INSENSITIVE OR INHIBITED HUMAN INTELLIGENCE.

                     -- MARGO JEFFERSON IN NEWSWEEK, SEPTEMBER 2, 1974
 Job cpu time:       0 days  0 hours 49 minutes 13.0 seconds.
 Elapsed time:       0 days  0 hours 49 minutes 19.1 seconds.
 File lengths (MBytes):  RWF=    118 Int=      0 D2E=      0 Chk=     13 Scr=      1
 Normal termination of Gaussian 16 at Tue Jun 10 22:04:46 2025.
