 Entering Gaussian System, Link 0=g16
 Initial command:
 /opt/gaussian/g16/l1.exe "/scratch/Gau-4106848.inp" -scrdir="/scratch/"
 Entering Link 1 = /opt/gaussian/g16/l1.exe PID=   4106849.
  
 Copyright (c) 1988-2019, Gaussian, Inc.  All Rights Reserved.
  
 This is part of the Gaussian(R) 16 program.  It is based on
 the Gaussian(R) 09 system (copyright 2009, Gaussian, Inc.),
 the Gaussian(R) 03 system (copyright 2003, Gaussian, Inc.),
 the Gaussian(R) 98 system (copyright 1998, Gaussian, Inc.),
 the Gaussian(R) 94 system (copyright 1995, Gaussian, Inc.),
 the Gaussian 92(TM) system (copyright 1992, Gaussian, Inc.),
 the Gaussian 90(TM) system (copyright 1990, Gaussian, Inc.),
 the Gaussian 88(TM) system (copyright 1988, Gaussian, Inc.),
 the Gaussian 86(TM) system (copyright 1986, Carnegie Mellon
 University), and the Gaussian 82(TM) system (copyright 1983,
 Carnegie Mellon University). Gaussian is a federally registered
 trademark of Gaussian, Inc.
  
 This software contains proprietary and confidential information,
 including trade secrets, belonging to Gaussian, Inc.
  
 This software is provided under written license and may be
 used, copied, transmitted, or stored only in accord with that
 written license.
  
 The following legend is applicable only to US Government
 contracts under FAR:
  
                    RESTRICTED RIGHTS LEGEND
  
 Use, reproduction and disclosure by the US Government is
 subject to restrictions as set forth in subparagraphs (a)
 and (c) of the Commercial Computer Software - Restricted
 Rights clause in FAR 52.227-19.
  
 Gaussian, Inc.
 340 Quinnipiac St., Bldg. 40, Wallingford CT 06492
  
  
 ---------------------------------------------------------------
 Warning -- This program may not be used in any manner that
 competes with the business of Gaussian, Inc. or will provide
 assistance to any competitor of Gaussian, Inc.  The licensee
 of this program is prohibited from giving any competitor of
 Gaussian, Inc. access to this program.  By using this program,
 the user acknowledges that Gaussian, Inc. is engaged in the
 business of creating and licensing software in the field of
 computational chemistry and represents and warrants to the
 licensee that it is not a competitor of Gaussian, Inc. and that
 it will not use this program in any manner prohibited above.
 ---------------------------------------------------------------
  

 Cite this work as:
 Gaussian 16, Revision C.01,
 M. J. Frisch, G. W. Trucks, H. B. Schlegel, G. E. Scuseria, 
 M. A. Robb, J. R. Cheeseman, G. Scalmani, V. Barone, 
 G. A. Petersson, H. Nakatsuji, X. Li, M. Caricato, A. V. Marenich, 
 J. Bloino, B. G. Janesko, R. Gomperts, B. Mennucci, H. P. Hratchian, 
 J. V. Ortiz, A. F. Izmaylov, J. L. Sonnenberg, D. Williams-Young, 
 F. Ding, F. Lipparini, F. Egidi, J. Goings, B. Peng, A. Petrone, 
 T. Henderson, D. Ranasinghe, V. G. Zakrzewski, J. Gao, N. Rega, 
 G. Zheng, W. Liang, M. Hada, M. Ehara, K. Toyota, R. Fukuda, 
 J. Hasegawa, M. Ishida, T. Nakajima, Y. Honda, O. Kitao, H. Nakai, 
 T. Vreven, K. Throssell, J. A. Montgomery, Jr., J. E. Peralta, 
 F. Ogliaro, M. J. Bearpark, J. J. Heyd, E. N. Brothers, K. N. Kudin, 
 V. N. Staroverov, T. A. Keith, R. Kobayashi, J. Normand, 
 K. Raghavachari, A. P. Rendell, J. C. Burant, S. S. Iyengar, 
 J. Tomasi, M. Cossi, J. M. Millam, M. Klene, C. Adamo, R. Cammi, 
 J. W. Ochterski, R. L. Martin, K. Morokuma, O. Farkas, 
 J. B. Foresman, and D. J. Fox, Gaussian, Inc., Wallingford CT, 2019.
 
 ******************************************
 Gaussian 16:  ES64L-G16RevC.01  3-Jul-2019
                10-Jun-2025 
 ******************************************
 ---------------------------------------------
 # wB97xD/Def2TZVP SCF(Tight) Int(Grid=299974)
 ---------------------------------------------
 1/38=1,172=1/1;
 2/12=2,17=6,18=5,40=1/2;
 3/5=44,7=101,11=2,25=1,30=1,74=-58,75=299974/1,2,3;
 4//1;
 5/5=2,32=2,38=5/2;
 6/7=2,8=2,9=2,10=2,28=1/1;
 99/5=1,9=1/99;
 ------------------
 Displacement_-0.02
 ------------------
 Symbolic Z-matrix:
 Charge = -1 Multiplicity = 1
 N                    -2.44939   1.66211   0.31258 
 H                    -1.8926    1.66173   1.15867 
 H                    -2.08055   2.39618  -0.2733 
 H                    -4.1774    1.14129   0.66201 
 C                    -2.34829   0.35429  -0.35133 
 H                    -2.34121   0.52504  -1.4324 
 C                    -1.09445  -0.434     0.01895 
 H                    -1.1588   -1.42065  -0.44229 
 H                    -1.09439  -0.60081   1.10359 
 C                     0.18947   0.26903  -0.40151 
 H                     0.22625   1.27477   0.0337 
 H                     0.20219   0.4038   -1.48811 
 C                     1.45499  -0.47538   0.01098 
 H                     1.50015  -1.44846  -0.48752 
 H                     1.38755  -0.69123   1.09711 
 N                     2.63781   0.25245  -0.37036 
 H                     2.66348   1.14038   0.18462 
 C                     3.9113   -0.45352  -0.15944 
 N                     4.22906  -0.56191   1.25378 
 H                     3.54452  -1.14196   1.72135 
 H                     4.12769   0.37708   1.71424 
 N                     4.9544    0.3904   -0.71407 
 H                     4.67994   0.59637  -1.66721 
 H                     4.93723   1.30905  -0.21342 
 C                    -3.63401  -0.44553  -0.08875 
 O                    -4.58652   0.25795   0.52483 
 O                    -3.78911  -1.58538  -0.4257 
 
                          Input orientation:                          
 ---------------------------------------------------------------------
 Center     Atomic      Atomic             Coordinates (Angstroms)
 Number     Number       Type             X           Y           Z
 ---------------------------------------------------------------------
      1          7           0       -2.449391    1.662106    0.312579
      2          1           0       -1.892601    1.661727    1.158668
      3          1           0       -2.080546    2.396181   -0.273303
      4          1           0       -4.177396    1.141286    0.662011
      5          6           0       -2.348291    0.354291   -0.351331
      6          1           0       -2.341210    0.525036   -1.432399
      7          6           0       -1.094454   -0.433998    0.018947
      8          1           0       -1.158799   -1.420651   -0.442292
      9          1           0       -1.094388   -0.600813    1.103594
     10          6           0        0.189472    0.269027   -0.401511
     11          1           0        0.226249    1.274775    0.033698
     12          1           0        0.202187    0.403801   -1.488111
     13          6           0        1.454987   -0.475381    0.010983
     14          1           0        1.500154   -1.448464   -0.487522
     15          1           0        1.387551   -0.691228    1.097108
     16          7           0        2.637813    0.252447   -0.370362
     17          1           0        2.663477    1.140380    0.184621
     18          6           0        3.911300   -0.453520   -0.159439
     19          7           0        4.229064   -0.561912    1.253782
     20          1           0        3.544517   -1.141961    1.721352
     21          1           0        4.127688    0.377081    1.714239
     22          7           0        4.954403    0.390404   -0.714069
     23          1           0        4.679941    0.596368   -1.667212
     24          1           0        4.937228    1.309049   -0.213421
     25          6           0       -3.634014   -0.445530   -0.088747
     26          8           0       -4.586522    0.257947    0.524834
     27          8           0       -3.789113   -1.585375   -0.425703
 ---------------------------------------------------------------------
                    Distance matrix (angstroms):
                    1          2          3          4          5
     1  N    0.000000
     2  H    1.012858   0.000000
     3  H    1.009044   1.620274   0.000000
     4  H    1.838303   2.395374   2.616554   0.000000
     5  C    1.470162   2.048692   2.060847   2.234244   0.000000
     6  H    2.085565   2.864777   2.216446   2.852700   1.094492
     7  C    2.513111   2.515565   3.011262   3.521304   1.526634
     8  H    3.426200   3.550013   3.930188   4.110345   2.138594
     9  H    2.753641   2.399847   3.442430   3.568591   2.145065
    10  C    3.068255   2.951068   3.113552   4.578368   2.539691
    11  H    2.717876   2.429982   2.583235   4.450246   2.761122
    12  H    3.443353   3.602215   3.264385   4.934334   2.792787
    13  C    4.461387   4.134097   4.563626   5.895862   3.909546
    14  H    5.090650   4.888151   5.258193   6.345298   4.251941
    15  H    4.569003   4.037274   4.841262   5.875036   4.140966
    16  N    5.322893   4.984842   5.183428   6.950029   4.987180
    17  H    5.141011   4.688114   4.928741   6.857510   5.101274
    18  C    6.719901   6.316403   6.635961   8.285239   6.314417
    19  N    7.101682   6.513709   7.133967   8.597654   6.832087
    20  H    6.765676   6.143251   6.938186   8.121783   6.423392
    21  H    6.846452   6.180846   6.824167   8.406284   6.797456
    22  N    7.582044   7.211440   7.328569   9.265375   7.311787
    23  H    7.475476   7.233180   7.133477   9.174674   7.154452
    24  H    7.413735   6.975211   7.101732   9.158105   7.349107
    25  C    2.450821   3.004845   3.243863   1.837631   1.536798
    26  O    2.565939   3.103152   3.389540   0.983102   2.405541
    27  O    3.589714   4.080522   4.335345   2.961176   2.417396
                    6          7          8          9         10
     6  H    0.000000
     7  C    2.140222   0.000000
     8  H    2.482762   1.091039   0.000000
     9  H    3.041934   1.097400   1.751013   0.000000
    10  C    2.744562   1.522989   2.162061   2.161078   0.000000
    11  H    3.050147   2.159717   3.067612   2.531124   1.096489
    12  H    2.546894   2.157408   2.504924   3.067131   1.095000
    13  C    4.182738   2.549789   2.816180   2.776481   1.525065
    14  H    4.420811   2.831544   2.659483   3.159400   2.162189
    15  H    4.667051   2.718262   3.063610   2.483594   2.145540
    16  N    5.098323   3.814785   4.149541   4.102429   2.448595
    17  H    5.295309   4.077764   4.643457   4.242383   2.687658
    18  C    6.455376   5.008970   5.169260   5.164674   3.799036
    19  N    7.180914   5.466354   5.713420   5.325712   4.443957
    20  H    6.882355   4.991938   5.184612   4.711041   4.213521
    21  H    7.195128   5.550012   5.985767   5.347826   4.471870
    22  N    7.332127   6.148628   6.381616   6.393300   4.776714
    23  H    7.025439   6.103149   6.297593   6.515634   4.676907
    24  H    7.421337   6.282786   6.683202   6.462391   4.863971
    25  C    2.102080   2.541869   2.683756   2.809891   3.902238
    26  O    2.990572   3.595726   3.937297   3.642449   4.865014
    27  O    2.750217   2.963877   2.635519   3.251101   4.389593
                   11         12         13         14         15
    11  H    0.000000
    12  H    1.753590   0.000000
    13  C    2.138541   2.142371   0.000000
    14  H    3.051317   2.473213   1.094275   0.000000
    15  H    2.518855   3.047546   1.109417   1.759869   0.000000
    16  N    2.650294   2.684128   1.440220   2.049657   2.146426
    17  H    2.445592   3.065702   2.025162   2.916712   2.411516
    18  C    4.074789   4.032107   2.462315   2.628912   2.829262
    19  N    4.569962   4.966520   3.040977   3.356347   2.848766
    20  H    4.438433   4.884793   2.781335   3.025308   2.290271
    21  H    4.341808   5.066095   3.281936   3.883851   3.005077
    22  N    4.867926   4.814860   3.677118   3.919770   4.143998
    23  H    4.815465   4.485470   3.790160   3.960310   4.487672
    24  H    4.717580   4.986474   3.919254   4.415030   4.280047
    25  C    4.228010   4.170854   5.090066   5.246387   5.165533
    26  O    4.943472   5.196629   6.107507   6.401900   6.076017
    27  O    4.951226   4.584322   5.378045   5.291400   5.469580
                   16         17         18         19         20
    16  N    0.000000
    17  H    1.047421   0.000000
    18  C    1.471274   2.053280   0.000000
    19  N    2.415182   2.547934   1.452555   0.000000
    20  H    2.672406   2.889092   2.036137   1.011772   0.000000
    21  H    2.565311   2.250838   2.060920   1.050717   1.627153
    22  N    2.346008   2.572635   1.451856   2.303358   3.204247
    23  H    2.443438   2.791301   1.991596   3.174446   3.974084
    24  H    2.535419   2.314483   2.040121   2.480862   3.419129
    25  C    6.316826   6.499864   7.545649   7.977714   7.435912
    26  O    7.279589   7.311424   8.554963   8.883585   8.336977
    27  O    6.684761   7.031227   7.787705   8.255865   7.654318
                   21         22         23         24         25
    21  H    0.000000
    22  N    2.565212   0.000000
    23  H    3.433261   1.013031   0.000000
    24  H    2.289059   1.046352   1.639396   0.000000
    25  C    8.010709   8.651631   8.526368   8.749873   0.000000
    26  O    8.795813   9.621937   9.528218   9.609977   1.333654
    27  O    8.432457   8.968608   8.833245   9.196292   1.198683
                   26         27
    26  O    0.000000
    27  O    2.221985   0.000000
 Stoichiometry    C6H15N4O2(1-)
 Framework group  C1[X(C6H15N4O2)]
 Deg. of freedom    75
 Full point group                 C1      NOp   1
 Largest Abelian subgroup         C1      NOp   1
 Largest concise Abelian subgroup C1      NOp   1
                         Standard orientation:                         
 ---------------------------------------------------------------------
 Center     Atomic      Atomic             Coordinates (Angstroms)
 Number     Number       Type             X           Y           Z
 ---------------------------------------------------------------------
      1          7           0       -2.449407    1.662302    0.311326
      2          1           0       -1.892584    1.662574    1.157393
      3          1           0       -2.080616    2.395957   -0.275116
      4          1           0       -4.177377    1.141670    0.661212
      5          6           0       -2.348279    0.353998   -0.351618
      6          1           0       -2.341248    0.523941   -1.432812
      7          6           0       -1.094395   -0.433964    0.019196
      8          1           0       -1.158718   -1.420962   -0.441308
      9          1           0       -1.094280   -0.599974    1.103967
     10          6           0        0.189485    0.268802   -0.401834
     11          1           0        0.226238    1.274874    0.032627
     12          1           0        0.202152    0.402770   -1.488534
     13          6           0        1.455047   -0.475247    0.011163
     14          1           0        1.500235   -1.448698   -0.486622
     15          1           0        1.387663   -0.690291    1.097450
     16          7           0        2.637828    0.252346   -0.370769
     17          1           0        2.663477    1.140692    0.183554
     18          6           0        3.911353   -0.453411   -0.159372
     19          7           0        4.229176   -0.560741    1.253917
     20          1           0        3.544672   -1.140471    1.721944
     21          1           0        4.127780    0.378589    1.713681
     22          7           0        4.954399    0.390144   -0.714669
     23          1           0        4.679891    0.595389   -1.667954
     24          1           0        4.937206    1.309160   -0.214702
     25          6           0       -3.633959   -0.445681   -0.088389
     26          8           0       -4.586472    0.258212    0.524707
     27          8           0       -3.789024   -1.585782   -0.424493
 ---------------------------------------------------------------------
 Rotational constants (GHZ):           2.7669842           0.2562118           0.2486603
 Standard basis: def2TZVP (5D, 7F)
 There are   522 symmetry adapted cartesian basis functions of A   symmetry.
 There are   462 symmetry adapted basis functions of A   symmetry.
   462 basis functions,   732 primitive gaussians,   522 cartesian basis functions
    48 alpha electrons       48 beta electrons
       nuclear repulsion energy       711.3618110640 Hartrees.
 NAtoms=   27 NActive=   27 NUniq=   27 SFac= 1.00D+00 NAtFMM=   60 NAOKFM=F Big=F
 Integral buffers will be    131072 words long.
 Raffenetti 2 integral format.
 Two-electron integral symmetry is turned on.
 Nuclear repulsion after empirical dispersion term =      711.3443009123 Hartrees.
 One-electron integrals computed using PRISM.
   1 Symmetry operations used in ECPInt.
 ECPInt:  NShTT=   18528 NPrTT=   54924 LenC2=   16268 LenP2D=   36015.
 LDataN:  DoStor=T MaxTD1= 6 Len=  172
 NBasis=   462 RedAO= T EigKep=  7.71D-05  NBF=   462
 NBsUse=   462 1.00D-06 EigRej= -1.00D+00 NBFU=   462
 ExpMin= 9.52D-02 ExpMax= 2.70D+04 ExpMxC= 9.22D+02 IAcc=4 IRadAn=    299974 AccDes= 0.00D+00
 Harris functional with IExCor= 4639 and IRadAn=  299974 diagonalized for initial guess.
 HarFok:  IExCor= 4639 AccDes= 0.00D+00 IRadAn=    299974 IDoV= 1 UseB2=F ITyADJ=14
 ICtDFT=  3500011 ScaDFX=  1.000000  1.000000  1.000000  1.000000
 FoFCou: FMM=F IPFlag=           0 FMFlag=      100000 FMFlg1=           0
         NFxFlg=           0 DoJE=T BraDBF=F KetDBF=T FulRan=T
         wScrn=  0.000000 ICntrl=       500 IOpCl=  0 I1Cent=   200000004 NGrid=           0
         NMat0=    1 NMatS0=      1 NMatT0=    0 NMatD0=    1 NMtDS0=    0 NMtDT0=    0
 Petite list used in FoFCou.
 Requested convergence on RMS density matrix=1.00D-08 within 128 cycles.
 Requested convergence on MAX density matrix=1.00D-06.
 Requested convergence on             energy=1.00D-06.
 No special actions if energy rises.
 Integral accuracy reduced to 1.0D-05 until final iterations.
 Initial convergence to 1.0D-05 achieved.  Increase integral accuracy.
 SCF Done:  E(RwB97XD) =  -607.133021521     A.U. after   17 cycles
            NFock= 17  Conv=0.22D-08     -V/T= 2.0045

 **********************************************************************

            Population analysis using the SCF Density.

 **********************************************************************

 Orbital symmetries:
       Occupied  (A) (A) (A) (A) (A) (A) (A) (A) (A) (A) (A) (A)
                 (A) (A) (A) (A) (A) (A) (A) (A) (A) (A) (A) (A)
                 (A) (A) (A) (A) (A) (A) (A) (A) (A) (A) (A) (A)
                 (A) (A) (A) (A) (A) (A) (A) (A) (A) (A) (A) (A)
       Virtual   (A) (A) (A) (A) (A) (A) (A) (A) (A) (A) (A) (A)
                 (A) (A) (A) (A) (A) (A) (A) (A) (A) (A) (A) (A)
                 (A) (A) (A) (A) (A) (A) (A) (A) (A) (A) (A) (A)
                 (A) (A) (A) (A) (A) (A) (A) (A) (A) (A) (A) (A)
                 (A) (A) (A) (A) (A) (A) (A) (A) (A) (A) (A) (A)
                 (A) (A) (A) (A) (A) (A) (A) (A) (A) (A) (A) (A)
                 (A) (A) (A) (A) (A) (A) (A) (A) (A) (A) (A) (A)
                 (A) (A) (A) (A) (A) (A) (A) (A) (A) (A) (A) (A)
                 (A) (A) (A) (A) (A) (A) (A) (A) (A) (A) (A) (A)
                 (A) (A) (A) (A) (A) (A) (A) (A) (A) (A) (A) (A)
                 (A) (A) (A) (A) (A) (A) (A) (A) (A) (A) (A) (A)
                 (A) (A) (A) (A) (A) (A) (A) (A) (A) (A) (A) (A)
                 (A) (A) (A) (A) (A) (A) (A) (A) (A) (A) (A) (A)
                 (A) (A) (A) (A) (A) (A) (A) (A) (A) (A) (A) (A)
                 (A) (A) (A) (A) (A) (A) (A) (A) (A) (A) (A) (A)
                 (A) (A) (A) (A) (A) (A) (A) (A) (A) (A) (A) (A)
                 (A) (A) (A) (A) (A) (A) (A) (A) (A) (A) (A) (A)
                 (A) (A) (A) (A) (A) (A) (A) (A) (A) (A) (A) (A)
                 (A) (A) (A) (A) (A) (A) (A) (A) (A) (A) (A) (A)
                 (A) (A) (A) (A) (A) (A) (A) (A) (A) (A) (A) (A)
                 (A) (A) (A) (A) (A) (A) (A) (A) (A) (A) (A) (A)
                 (A) (A) (A) (A) (A) (A) (A) (A) (A) (A) (A) (A)
                 (A) (A) (A) (A) (A) (A) (A) (A) (A) (A) (A) (A)
                 (A) (A) (A) (A) (A) (A) (A) (A) (A) (A) (A) (A)
                 (A) (A) (A) (A) (A) (A) (A) (A) (A) (A) (A) (A)
                 (A) (A) (A) (A) (A) (A) (A) (A) (A) (A) (A) (A)
                 (A) (A) (A) (A) (A) (A) (A) (A) (A) (A) (A) (A)
                 (A) (A) (A) (A) (A) (A) (A) (A) (A) (A) (A) (A)
                 (A) (A) (A) (A) (A) (A) (A) (A) (A) (A) (A) (A)
                 (A) (A) (A) (A) (A) (A) (A) (A) (A) (A) (A) (A)
                 (A) (A) (A) (A) (A) (A) (A) (A) (A) (A) (A) (A)
                 (A) (A) (A) (A) (A) (A) (A) (A) (A) (A) (A) (A)
                 (A) (A) (A) (A) (A) (A) (A) (A) (A) (A) (A) (A)
                 (A) (A) (A) (A) (A) (A) (A) (A) (A) (A) (A) (A)
                 (A) (A) (A) (A) (A) (A)
 The electronic state is 1-A.
 Alpha  occ. eigenvalues --  -19.20420 -19.14474 -14.37146 -14.23885 -14.22580
 Alpha  occ. eigenvalues --  -14.22134 -10.32612 -10.25466 -10.19389 -10.16785
 Alpha  occ. eigenvalues --  -10.15855 -10.10006  -1.12370  -1.03767  -0.94109
 Alpha  occ. eigenvalues --   -0.85523  -0.80062  -0.77096  -0.73957  -0.71244
 Alpha  occ. eigenvalues --   -0.62973  -0.60593  -0.56962  -0.54591  -0.51429
 Alpha  occ. eigenvalues --   -0.48813  -0.47906  -0.45819  -0.45277  -0.43379
 Alpha  occ. eigenvalues --   -0.41503  -0.40406  -0.39068  -0.37149  -0.36277
 Alpha  occ. eigenvalues --   -0.35151  -0.33744  -0.32678  -0.31886  -0.31196
 Alpha  occ. eigenvalues --   -0.30518  -0.28684  -0.28234  -0.26191  -0.18653
 Alpha  occ. eigenvalues --   -0.15510  -0.11873  -0.03608
 Alpha virt. eigenvalues --    0.15792   0.18122   0.20609   0.22638   0.23396
 Alpha virt. eigenvalues --    0.25093   0.25760   0.26598   0.27619   0.28204
 Alpha virt. eigenvalues --    0.30001   0.30944   0.32240   0.32752   0.33104
 Alpha virt. eigenvalues --    0.34999   0.35189   0.35429   0.36258   0.37529
 Alpha virt. eigenvalues --    0.37814   0.39304   0.40681   0.42165   0.43941
 Alpha virt. eigenvalues --    0.43989   0.44787   0.45634   0.46352   0.47427
 Alpha virt. eigenvalues --    0.47640   0.48627   0.49467   0.50848   0.51413
 Alpha virt. eigenvalues --    0.52595   0.53497   0.53859   0.54817   0.55454
 Alpha virt. eigenvalues --    0.56136   0.56603   0.57431   0.57881   0.59372
 Alpha virt. eigenvalues --    0.59603   0.60766   0.61436   0.61910   0.62416
 Alpha virt. eigenvalues --    0.62763   0.63724   0.63961   0.64802   0.65266
 Alpha virt. eigenvalues --    0.65704   0.66146   0.66896   0.67715   0.69242
 Alpha virt. eigenvalues --    0.69490   0.70023   0.70897   0.71877   0.72073
 Alpha virt. eigenvalues --    0.72075   0.73375   0.73792   0.74480   0.75424
 Alpha virt. eigenvalues --    0.77224   0.78159   0.78727   0.79366   0.80684
 Alpha virt. eigenvalues --    0.82261   0.82469   0.83632   0.84467   0.85993
 Alpha virt. eigenvalues --    0.86118   0.88811   0.90546   0.91067   0.92753
 Alpha virt. eigenvalues --    0.94813   0.96368   0.97969   0.99480   1.00719
 Alpha virt. eigenvalues --    1.02790   1.04047   1.06085   1.06448   1.08143
 Alpha virt. eigenvalues --    1.09127   1.10024   1.10151   1.12875   1.15344
 Alpha virt. eigenvalues --    1.16942   1.17592   1.18766   1.21060   1.22726
 Alpha virt. eigenvalues --    1.23891   1.26233   1.28248   1.29971   1.30831
 Alpha virt. eigenvalues --    1.33299   1.34075   1.36391   1.38080   1.40178
 Alpha virt. eigenvalues --    1.40997   1.43106   1.46320   1.47252   1.48666
 Alpha virt. eigenvalues --    1.49449   1.50576   1.52376   1.52863   1.54021
 Alpha virt. eigenvalues --    1.54931   1.55858   1.57194   1.58219   1.60348
 Alpha virt. eigenvalues --    1.61378   1.63514   1.64820   1.65398   1.67038
 Alpha virt. eigenvalues --    1.67608   1.70135   1.70890   1.72570   1.73633
 Alpha virt. eigenvalues --    1.73881   1.75743   1.77777   1.78324   1.80151
 Alpha virt. eigenvalues --    1.80346   1.81918   1.82999   1.85186   1.86653
 Alpha virt. eigenvalues --    1.88753   1.89474   1.92883   1.93999   1.95308
 Alpha virt. eigenvalues --    1.95569   1.96836   1.98649   1.99414   2.00976
 Alpha virt. eigenvalues --    2.01538   2.04265   2.05278   2.06094   2.07946
 Alpha virt. eigenvalues --    2.09247   2.09957   2.10703   2.11475   2.13350
 Alpha virt. eigenvalues --    2.15533   2.15961   2.16599   2.18435   2.20640
 Alpha virt. eigenvalues --    2.21412   2.22168   2.22909   2.23531   2.25028
 Alpha virt. eigenvalues --    2.25986   2.26458   2.27097   2.28664   2.29306
 Alpha virt. eigenvalues --    2.31693   2.32802   2.33302   2.36854   2.37587
 Alpha virt. eigenvalues --    2.40112   2.40554   2.43673   2.44390   2.45340
 Alpha virt. eigenvalues --    2.46211   2.48336   2.49196   2.51703   2.51858
 Alpha virt. eigenvalues --    2.54789   2.56354   2.58251   2.58680   2.59996
 Alpha virt. eigenvalues --    2.60866   2.62346   2.65019   2.65617   2.67818
 Alpha virt. eigenvalues --    2.68670   2.68960   2.71148   2.72401   2.74039
 Alpha virt. eigenvalues --    2.74946   2.76123   2.77314   2.79119   2.80663
 Alpha virt. eigenvalues --    2.81794   2.82960   2.83766   2.84295   2.86093
 Alpha virt. eigenvalues --    2.88571   2.89447   2.90243   2.90683   2.91217
 Alpha virt. eigenvalues --    2.94210   2.94850   2.95724   2.96508   2.97323
 Alpha virt. eigenvalues --    2.99592   3.03801   3.05082   3.06585   3.07944
 Alpha virt. eigenvalues --    3.09150   3.10268   3.12210   3.13451   3.14654
 Alpha virt. eigenvalues --    3.17100   3.18908   3.21709   3.22669   3.25104
 Alpha virt. eigenvalues --    3.25846   3.26329   3.28792   3.29320   3.30299
 Alpha virt. eigenvalues --    3.31584   3.34311   3.38746   3.38811   3.40724
 Alpha virt. eigenvalues --    3.42183   3.42945   3.44367   3.45179   3.46316
 Alpha virt. eigenvalues --    3.46430   3.48819   3.49871   3.51044   3.51905
 Alpha virt. eigenvalues --    3.52498   3.53614   3.53895   3.56695   3.58697
 Alpha virt. eigenvalues --    3.60104   3.62190   3.63941   3.64821   3.65958
 Alpha virt. eigenvalues --    3.68077   3.69083   3.69569   3.70902   3.74029
 Alpha virt. eigenvalues --    3.75420   3.76494   3.77794   3.81396   3.82022
 Alpha virt. eigenvalues --    3.83547   3.85731   3.86466   3.88471   3.92405
 Alpha virt. eigenvalues --    3.93904   3.95104   3.99590   4.04139   4.04756
 Alpha virt. eigenvalues --    4.05957   4.07996   4.11052   4.12578   4.14008
 Alpha virt. eigenvalues --    4.14223   4.17981   4.20810   4.21040   4.22023
 Alpha virt. eigenvalues --    4.26334   4.31453   4.32696   4.36620   4.37901
 Alpha virt. eigenvalues --    4.40530   4.43770   4.48642   4.51424   4.53654
 Alpha virt. eigenvalues --    4.54420   4.56353   4.58726   4.59485   4.60759
 Alpha virt. eigenvalues --    4.64106   4.66191   4.70267   4.74346   4.74795
 Alpha virt. eigenvalues --    4.77467   4.81551   4.84615   4.88388   4.89910
 Alpha virt. eigenvalues --    4.91601   4.93539   4.97416   4.98639   4.99689
 Alpha virt. eigenvalues --    5.01014   5.01932   5.07510   5.09453   5.10191
 Alpha virt. eigenvalues --    5.11822   5.12834   5.16748   5.19175   5.20809
 Alpha virt. eigenvalues --    5.24894   5.26060   5.27098   5.30263   5.30710
 Alpha virt. eigenvalues --    5.34025   5.34976   5.35490   5.38106   5.38634
 Alpha virt. eigenvalues --    5.40852   5.42131   5.46181   5.46643   5.48805
 Alpha virt. eigenvalues --    5.49621   5.52976   5.57027   5.59713   5.61157
 Alpha virt. eigenvalues --    5.63847   5.68272   5.69827   5.72301   5.73080
 Alpha virt. eigenvalues --    5.74865   5.76371   5.80445   5.86215   5.87755
 Alpha virt. eigenvalues --    5.92665   5.94609   5.96778   6.01194   6.10710
 Alpha virt. eigenvalues --    6.16548   6.20323   6.25859   6.35952   6.36443
 Alpha virt. eigenvalues --    6.53631   6.58951   6.63521   6.67848   6.89957
 Alpha virt. eigenvalues --    6.90134   6.97030   7.00756   7.19117   7.30569
 Alpha virt. eigenvalues --    7.34111   7.46543  22.62019  22.71137  22.73367
 Alpha virt. eigenvalues --   22.76957  22.80110  23.51683  32.20083  32.22246
 Alpha virt. eigenvalues --   32.30858  32.74956  44.02112  44.08743
          Condensed to atoms (all electrons):
               1          2          3          4          5          6
     1  N    6.771177   0.368694   0.372490   0.056221   0.142733  -0.044792
     2  H    0.368694   0.441805  -0.028764  -0.001653  -0.033593   0.005965
     3  H    0.372490  -0.028764   0.442044  -0.000773  -0.019351  -0.010993
     4  H    0.056221  -0.001653  -0.000773   0.358834  -0.017516   0.001364
     5  C    0.142733  -0.033593  -0.019351  -0.017516   5.404327   0.404257
     6  H   -0.044792   0.005965  -0.010993   0.001364   0.404257   0.578483
     7  C   -0.050519  -0.005892  -0.002925   0.003811   0.223634  -0.035729
     8  H    0.008511   0.000338  -0.000453  -0.000234  -0.044729  -0.003121
     9  H   -0.010421   0.004960  -0.000162  -0.000099  -0.025031   0.008550
    10  C    0.010143  -0.000170   0.001700  -0.000245  -0.041517  -0.003583
    11  H    0.017685   0.003249  -0.000417   0.000006  -0.024009  -0.000814
    12  H   -0.001744   0.000351   0.000413  -0.000046   0.006025   0.003026
    13  C    0.001898  -0.000502   0.000176   0.000005  -0.014440   0.000731
    14  H   -0.000106   0.000051  -0.000006   0.000000   0.001675  -0.000013
    15  H    0.000066  -0.000003   0.000048  -0.000001   0.002227  -0.000247
    16  N    0.000117   0.000006   0.000008  -0.000000  -0.000980  -0.000071
    17  H   -0.000183   0.000110   0.000004  -0.000001   0.001144  -0.000057
    18  C    0.000017  -0.000009   0.000000  -0.000000  -0.000159   0.000004
    19  N   -0.000000   0.000002   0.000000   0.000000   0.000025  -0.000001
    20  H   -0.000000   0.000000  -0.000000   0.000000   0.000006   0.000000
    21  H   -0.000001   0.000005   0.000000  -0.000000   0.000027  -0.000001
    22  N   -0.000000   0.000000   0.000000  -0.000000  -0.000002  -0.000000
    23  H   -0.000000  -0.000000   0.000000   0.000000   0.000001  -0.000000
    24  H   -0.000000   0.000000   0.000000  -0.000000   0.000007  -0.000000
    25  C   -0.006143  -0.000623   0.000446  -0.034421   0.233479  -0.014161
    26  O   -0.045386   0.000868   0.000307   0.288907  -0.123788   0.001699
    27  O    0.005319  -0.000022  -0.000214   0.005001  -0.131376   0.002426
               7          8          9         10         11         12
     1  N   -0.050519   0.008511  -0.010421   0.010143   0.017685  -0.001744
     2  H   -0.005892   0.000338   0.004960  -0.000170   0.003249   0.000351
     3  H   -0.002925  -0.000453  -0.000162   0.001700  -0.000417   0.000413
     4  H    0.003811  -0.000234  -0.000099  -0.000245   0.000006  -0.000046
     5  C    0.223634  -0.044729  -0.025031  -0.041517  -0.024009   0.006025
     6  H   -0.035729  -0.003121   0.008550  -0.003583  -0.000814   0.003026
     7  C    5.320005   0.396130   0.389647   0.142898  -0.057260  -0.019892
     8  H    0.396130   0.532366  -0.016363  -0.017382   0.007852  -0.006893
     9  H    0.389647  -0.016363   0.599630  -0.058326  -0.005980   0.008360
    10  C    0.142898  -0.017382  -0.058326   5.298150   0.411716   0.355358
    11  H   -0.057260   0.007852  -0.005980   0.411716   0.667173  -0.042509
    12  H   -0.019892  -0.006893   0.008360   0.355358  -0.042509   0.625061
    13  C   -0.058099   0.005316   0.006331   0.146947  -0.032468  -0.025497
    14  H   -0.027703   0.003435  -0.001392   0.044949   0.012330  -0.014011
    15  H    0.049761  -0.002755   0.004806  -0.095902  -0.014858   0.018676
    16  N    0.011332   0.000131   0.000222  -0.098570  -0.005396   0.018768
    17  H   -0.002424  -0.000155  -0.000383   0.038619   0.019205  -0.000400
    18  C   -0.003162  -0.000089   0.000174  -0.006179  -0.001829  -0.000127
    19  N    0.001578  -0.000005  -0.000141   0.006577  -0.000283   0.000201
    20  H   -0.000149   0.000014  -0.000042   0.001447   0.000053  -0.000130
    21  H    0.000052  -0.000015  -0.000055   0.005566   0.000985   0.000085
    22  N   -0.000113   0.000000  -0.000001  -0.001161  -0.000040  -0.000130
    23  H    0.000075  -0.000002   0.000001  -0.000356  -0.000075   0.000370
    24  H    0.000001  -0.000003  -0.000001   0.002437   0.000313   0.000225
    25  C   -0.018200  -0.002263  -0.002203  -0.004089  -0.000424   0.000693
    26  O   -0.001461   0.000947   0.002266  -0.000662  -0.000009   0.000012
    27  O    0.011580   0.012346   0.000308  -0.001351  -0.000079   0.000025
              13         14         15         16         17         18
     1  N    0.001898  -0.000106   0.000066   0.000117  -0.000183   0.000017
     2  H   -0.000502   0.000051  -0.000003   0.000006   0.000110  -0.000009
     3  H    0.000176  -0.000006   0.000048   0.000008   0.000004   0.000000
     4  H    0.000005   0.000000  -0.000001  -0.000000  -0.000001  -0.000000
     5  C   -0.014440   0.001675   0.002227  -0.000980   0.001144  -0.000159
     6  H    0.000731  -0.000013  -0.000247  -0.000071  -0.000057   0.000004
     7  C   -0.058099  -0.027703   0.049761   0.011332  -0.002424  -0.003162
     8  H    0.005316   0.003435  -0.002755   0.000131  -0.000155  -0.000089
     9  H    0.006331  -0.001392   0.004806   0.000222  -0.000383   0.000174
    10  C    0.146947   0.044949  -0.095902  -0.098570   0.038619  -0.006179
    11  H   -0.032468   0.012330  -0.014858  -0.005396   0.019205  -0.001829
    12  H   -0.025497  -0.014011   0.018676   0.018768  -0.000400  -0.000127
    13  C    5.205743   0.281979   0.344157   0.437666  -0.165912  -0.068639
    14  H    0.281979   0.677876  -0.070020  -0.055741   0.043831   0.035710
    15  H    0.344157  -0.070020   0.866772  -0.103651  -0.005588  -0.034461
    16  N    0.437666  -0.055741  -0.103651   6.819544   0.147290   0.517982
    17  H   -0.165912   0.043831  -0.005588   0.147290   1.007923  -0.278386
    18  C   -0.068639   0.035710  -0.034461   0.517982  -0.278386   5.698905
    19  N    0.015526  -0.002872   0.040858  -0.159390  -0.016681   0.351223
    20  H    0.005640   0.000773  -0.002582   0.006873  -0.000975  -0.075319
    21  H   -0.016116   0.008385   0.006831  -0.044277   0.127521  -0.271782
    22  N    0.006827   0.003254  -0.000271  -0.177187   0.026026   0.409746
    23  H    0.000932  -0.000524   0.000537   0.012627   0.001711  -0.074878
    24  H   -0.007850   0.002701   0.001202  -0.045177   0.103096  -0.247620
    25  C   -0.000307  -0.000138   0.000418  -0.000003   0.000008  -0.000003
    26  O    0.000004  -0.000001  -0.000001  -0.000000  -0.000000   0.000000
    27  O    0.000197  -0.000029  -0.000004  -0.000000   0.000000   0.000000
              19         20         21         22         23         24
     1  N   -0.000000  -0.000000  -0.000001  -0.000000  -0.000000  -0.000000
     2  H    0.000002   0.000000   0.000005   0.000000  -0.000000   0.000000
     3  H    0.000000  -0.000000   0.000000   0.000000   0.000000   0.000000
     4  H    0.000000   0.000000  -0.000000  -0.000000   0.000000  -0.000000
     5  C    0.000025   0.000006   0.000027  -0.000002   0.000001   0.000007
     6  H   -0.000001   0.000000  -0.000001  -0.000000  -0.000000  -0.000000
     7  C    0.001578  -0.000149   0.000052  -0.000113   0.000075   0.000001
     8  H   -0.000005   0.000014  -0.000015   0.000000  -0.000002  -0.000003
     9  H   -0.000141  -0.000042  -0.000055  -0.000001   0.000001  -0.000001
    10  C    0.006577   0.001447   0.005566  -0.001161  -0.000356   0.002437
    11  H   -0.000283   0.000053   0.000985  -0.000040  -0.000075   0.000313
    12  H    0.000201  -0.000130   0.000085  -0.000130   0.000370   0.000225
    13  C    0.015526   0.005640  -0.016116   0.006827   0.000932  -0.007850
    14  H   -0.002872   0.000773   0.008385   0.003254  -0.000524   0.002701
    15  H    0.040858  -0.002582   0.006831  -0.000271   0.000537   0.001202
    16  N   -0.159390   0.006873  -0.044277  -0.177187   0.012627  -0.045177
    17  H   -0.016681  -0.000975   0.127521   0.026026   0.001711   0.103096
    18  C    0.351223  -0.075319  -0.271782   0.409746  -0.074878  -0.247620
    19  N    6.736779   0.391660   0.236167  -0.092942   0.012940  -0.025922
    20  H    0.391660   0.552764  -0.058152   0.009968  -0.001458  -0.001878
    21  H    0.236167  -0.058152   0.908938  -0.008427  -0.000171   0.094113
    22  N   -0.092942   0.009968  -0.008427   6.690191   0.367409   0.273868
    23  H    0.012940  -0.001458  -0.000171   0.367409   0.555046  -0.037798
    24  H   -0.025922  -0.001878   0.094113   0.273868  -0.037798   0.845058
    25  C    0.000000  -0.000000   0.000000  -0.000000   0.000000   0.000000
    26  O   -0.000000  -0.000000   0.000000  -0.000000  -0.000000   0.000000
    27  O    0.000000  -0.000000   0.000000   0.000000   0.000000   0.000000
              25         26         27
     1  N   -0.006143  -0.045386   0.005319
     2  H   -0.000623   0.000868  -0.000022
     3  H    0.000446   0.000307  -0.000214
     4  H   -0.034421   0.288907   0.005001
     5  C    0.233479  -0.123788  -0.131376
     6  H   -0.014161   0.001699   0.002426
     7  C   -0.018200  -0.001461   0.011580
     8  H   -0.002263   0.000947   0.012346
     9  H   -0.002203   0.002266   0.000308
    10  C   -0.004089  -0.000662  -0.001351
    11  H   -0.000424  -0.000009  -0.000079
    12  H    0.000693   0.000012   0.000025
    13  C   -0.000307   0.000004   0.000197
    14  H   -0.000138  -0.000001  -0.000029
    15  H    0.000418  -0.000001  -0.000004
    16  N   -0.000003  -0.000000  -0.000000
    17  H    0.000008  -0.000000   0.000000
    18  C   -0.000003   0.000000   0.000000
    19  N    0.000000  -0.000000   0.000000
    20  H   -0.000000  -0.000000  -0.000000
    21  H    0.000000   0.000000   0.000000
    22  N   -0.000000  -0.000000   0.000000
    23  H    0.000000  -0.000000   0.000000
    24  H    0.000000   0.000000   0.000000
    25  C    4.436033   0.392307   0.700653
    26  O    0.392307   7.953857  -0.085405
    27  O    0.700653  -0.085405   7.840555
 Mulliken charges:
               1
     1  N   -0.595774
     2  H    0.244827
     3  H    0.246422
     4  H    0.340840
     5  C    0.056926
     6  H    0.107077
     7  C   -0.266976
     8  H    0.127077
     9  H    0.095343
    10  C   -0.137014
    11  H    0.045883
    12  H    0.073730
    13  C   -0.070247
    14  H    0.055604
    15  H   -0.006015
    16  N   -0.282123
    17  H   -0.045343
    18  C    0.048880
    19  N   -0.495300
    20  H    0.171487
    21  H    0.010320
    22  N   -0.507016
    23  H    0.163612
    24  H    0.043230
    25  C    0.318940
    26  O   -0.384462
    27  O   -0.359928
 Sum of Mulliken charges =  -1.00000
 Mulliken charges with hydrogens summed into heavy atoms:
               1
     1  N   -0.104525
     5  C    0.164003
     7  C   -0.044556
    10  C   -0.017401
    13  C   -0.020658
    16  N   -0.327466
    18  C    0.048880
    19  N   -0.313493
    22  N   -0.300174
    25  C    0.318940
    26  O   -0.043621
    27  O   -0.359928
 Electronic spatial extent (au):  <R**2>=           4290.9103
 Charge=             -1.0000 electrons
 Dipole moment (field-independent basis, Debye):
    X=            -14.0996    Y=              5.7930    Z=              0.8542  Tot=             15.2672
 Quadrupole moment (field-independent basis, Debye-Ang):
   XX=           -197.7457   YY=            -83.4730   ZZ=            -78.5751
   XY=             -2.8649   XZ=              0.4255   YZ=             -1.6075
 Traceless Quadrupole moment (field-independent basis, Debye-Ang):
   XX=            -77.8144   YY=             36.4583   ZZ=             41.3561
   XY=             -2.8649   XZ=              0.4255   YZ=             -1.6075
 Octapole moment (field-independent basis, Debye-Ang**2):
  XXX=           -355.6424  YYY=             21.1201  ZZZ=             -3.1741  XYY=            -19.7901
  XXY=             94.0717  XXZ=             -8.5927  XZZ=            -33.7354  YZZ=              4.9913
  YYZ=              3.7116  XYZ=              4.2586
 Hexadecapole moment (field-independent basis, Debye-Ang**3):
 XXXX=          -8079.3562 YYYY=           -422.4569 ZZZZ=           -266.9025 XXXY=             52.5324
 XXXZ=            -26.3203 YYYX=            -25.3137 YYYZ=            -10.3448 ZZZX=            -33.9094
 ZZZY=             -0.8457 XXYY=          -1042.5907 XXZZ=           -947.9842 YYZZ=           -113.8595
 XXYZ=            -12.8107 YYXZ=             -7.0972 ZZXY=              3.4159
 N-N= 7.113443009123D+02 E-N=-2.854491185075D+03  KE= 6.044167831035D+02
 Unable to Open any file for archive entry.
 1\1\GINC-WATER\SP\RwB97XD\def2TZVP\C6H15N4O2(1-)\DAYALYZ\10-Jun-2025\0
 \\# wB97xD/Def2TZVP SCF(Tight) Int(Grid=299974)\\Displacement_-0.02\\-
 1,1\N,0,-2.449391,1.662106,0.312579\H,0,-1.892601,1.661727,1.158668\H,
 0,-2.080546,2.396181,-0.273303\H,0,-4.177396,1.141286,0.662011\C,0,-2.
 348291,0.354291,-0.351331\H,0,-2.34121,0.525036,-1.432399\C,0,-1.09445
 4,-0.433998,0.018947\H,0,-1.158799,-1.420651,-0.442292\H,0,-1.094388,-
 0.600813,1.103594\C,0,0.189472,0.269027,-0.401511\H,0,0.226249,1.27477
 5,0.033698\H,0,0.202187,0.403801,-1.488111\C,0,1.454987,-0.475381,0.01
 0983\H,0,1.500154,-1.448464,-0.487522\H,0,1.387551,-0.691228,1.097108\
 N,0,2.637813,0.252447,-0.370362\H,0,2.663477,1.14038,0.184621\C,0,3.91
 13,-0.45352,-0.159439\N,0,4.229064,-0.561912,1.253782\H,0,3.544517,-1.
 141961,1.721352\H,0,4.127688,0.377081,1.714239\N,0,4.954403,0.390404,-
 0.714069\H,0,4.679941,0.596368,-1.667212\H,0,4.937228,1.309049,-0.2134
 21\C,0,-3.634014,-0.44553,-0.088747\O,0,-4.586522,0.257947,0.524834\O,
 0,-3.789113,-1.585375,-0.425703\\Version=ES64L-G16RevC.01\State=1-A\HF
 =-607.1330215\RMSD=2.246e-09\Dipole=-5.547124,2.2791372,0.337531\Quadr
 upole=-57.853318,27.1078055,30.7455125,-2.1266231,0.311226,-1.1979008\
 PG=C01 [X(C6H15N4O2)]\\@
 The archive entry for this job was punched.


 IF MATHEMATICALLY YOU END UP WITH THE INCORRECT ANSWER,
 TRY MULTIPLYING BY THE PAGE NUMBER.
 Job cpu time:       0 days  0 hours 49 minutes 36.1 seconds.
 Elapsed time:       0 days  0 hours 49 minutes 48.7 seconds.
 File lengths (MBytes):  RWF=    118 Int=      0 D2E=      0 Chk=     13 Scr=      1
 Normal termination of Gaussian 16 at Tue Jun 10 19:35:27 2025.
