 Entering Gaussian System, Link 0=g16
 Initial command:
 /opt/gaussian/g16/l1.exe "/scratch/Gau-115252.inp" -scrdir="/scratch/"
 Entering Link 1 = /opt/gaussian/g16/l1.exe PID=    115253.
  
 Copyright (c) 1988-2019, Gaussian, Inc.  All Rights Reserved.
  
 This is part of the Gaussian(R) 16 program.  It is based on
 the Gaussian(R) 09 system (copyright 2009, Gaussian, Inc.),
 the Gaussian(R) 03 system (copyright 2003, Gaussian, Inc.),
 the Gaussian(R) 98 system (copyright 1998, Gaussian, Inc.),
 the Gaussian(R) 94 system (copyright 1995, Gaussian, Inc.),
 the Gaussian 92(TM) system (copyright 1992, Gaussian, Inc.),
 the Gaussian 90(TM) system (copyright 1990, Gaussian, Inc.),
 the Gaussian 88(TM) system (copyright 1988, Gaussian, Inc.),
 the Gaussian 86(TM) system (copyright 1986, Carnegie Mellon
 University), and the Gaussian 82(TM) system (copyright 1983,
 Carnegie Mellon University). Gaussian is a federally registered
 trademark of Gaussian, Inc.
  
 This software contains proprietary and confidential information,
 including trade secrets, belonging to Gaussian, Inc.
  
 This software is provided under written license and may be
 used, copied, transmitted, or stored only in accord with that
 written license.
  
 The following legend is applicable only to US Government
 contracts under FAR:
  
                    RESTRICTED RIGHTS LEGEND
  
 Use, reproduction and disclosure by the US Government is
 subject to restrictions as set forth in subparagraphs (a)
 and (c) of the Commercial Computer Software - Restricted
 Rights clause in FAR 52.227-19.
  
 Gaussian, Inc.
 340 Quinnipiac St., Bldg. 40, Wallingford CT 06492
  
  
 ---------------------------------------------------------------
 Warning -- This program may not be used in any manner that
 competes with the business of Gaussian, Inc. or will provide
 assistance to any competitor of Gaussian, Inc.  The licensee
 of this program is prohibited from giving any competitor of
 Gaussian, Inc. access to this program.  By using this program,
 the user acknowledges that Gaussian, Inc. is engaged in the
 business of creating and licensing software in the field of
 computational chemistry and represents and warrants to the
 licensee that it is not a competitor of Gaussian, Inc. and that
 it will not use this program in any manner prohibited above.
 ---------------------------------------------------------------
  

 Cite this work as:
 Gaussian 16, Revision C.01,
 M. J. Frisch, G. W. Trucks, H. B. Schlegel, G. E. Scuseria, 
 M. A. Robb, J. R. Cheeseman, G. Scalmani, V. Barone, 
 G. A. Petersson, H. Nakatsuji, X. Li, M. Caricato, A. V. Marenich, 
 J. Bloino, B. G. Janesko, R. Gomperts, B. Mennucci, H. P. Hratchian, 
 J. V. Ortiz, A. F. Izmaylov, J. L. Sonnenberg, D. Williams-Young, 
 F. Ding, F. Lipparini, F. Egidi, J. Goings, B. Peng, A. Petrone, 
 T. Henderson, D. Ranasinghe, V. G. Zakrzewski, J. Gao, N. Rega, 
 G. Zheng, W. Liang, M. Hada, M. Ehara, K. Toyota, R. Fukuda, 
 J. Hasegawa, M. Ishida, T. Nakajima, Y. Honda, O. Kitao, H. Nakai, 
 T. Vreven, K. Throssell, J. A. Montgomery, Jr., J. E. Peralta, 
 F. Ogliaro, M. J. Bearpark, J. J. Heyd, E. N. Brothers, K. N. Kudin, 
 V. N. Staroverov, T. A. Keith, R. Kobayashi, J. Normand, 
 K. Raghavachari, A. P. Rendell, J. C. Burant, S. S. Iyengar, 
 J. Tomasi, M. Cossi, J. M. Millam, M. Klene, C. Adamo, R. Cammi, 
 J. W. Ochterski, R. L. Martin, K. Morokuma, O. Farkas, 
 J. B. Foresman, and D. J. Fox, Gaussian, Inc., Wallingford CT, 2019.
 
 ******************************************
 Gaussian 16:  ES64L-G16RevC.01  3-Jul-2019
                11-Jun-2025 
 ******************************************
 ---------------------------------------------
 # wB97xD/Def2TZVP SCF(Tight) Int(Grid=299974)
 ---------------------------------------------
 1/38=1,172=1/1;
 2/12=2,17=6,18=5,40=1/2;
 3/5=44,7=101,11=2,25=1,30=1,74=-58,75=299974/1,2,3;
 4//1;
 5/5=2,32=2,38=5/2;
 6/7=2,8=2,9=2,10=2,28=1/1;
 99/5=1,9=1/99;
 -----------------
 Displacement_0.06
 -----------------
 Symbolic Z-matrix:
 Charge = -1 Multiplicity = 1
 N                    -2.44939   1.66211   0.31258 
 H                    -1.8926    1.66173   1.15867 
 H                    -2.08055   2.39618  -0.2733 
 H                    -4.1774    1.14129   0.66201 
 C                    -2.34829   0.35429  -0.35133 
 H                    -2.34121   0.52504  -1.4324 
 C                    -1.09445  -0.434     0.01895 
 H                    -1.1588   -1.42065  -0.44229 
 H                    -1.09439  -0.60081   1.10359 
 C                     0.18947   0.26903  -0.40151 
 H                     0.22625   1.27477   0.0337 
 H                     0.20219   0.4038   -1.48811 
 C                     1.45499  -0.47538   0.01098 
 H                     1.50015  -1.44926  -0.48672 
 H                     1.38675  -0.69203   1.09711 
 N                     2.63781   0.25245  -0.37036 
 H                     2.66348   1.14038   0.18542 
 C                     3.9105   -0.45352  -0.15864 
 N                     4.22826  -0.56111   1.25778 
 H                     3.54772  -1.17076   1.69175 
 H                     4.14769   0.39308   1.67904 
 N                     4.9536    0.3872   -0.71247 
 H                     4.68634   0.63237  -1.66001 
 H                     4.93963   1.32905  -0.24542 
 C                    -3.63401  -0.44553  -0.08875 
 O                    -4.58652   0.25795   0.52483 
 O                    -3.78911  -1.58538  -0.4257 
 
                          Input orientation:                          
 ---------------------------------------------------------------------
 Center     Atomic      Atomic             Coordinates (Angstroms)
 Number     Number       Type             X           Y           Z
 ---------------------------------------------------------------------
      1          7           0       -2.449391    1.662106    0.312579
      2          1           0       -1.892601    1.661727    1.158668
      3          1           0       -2.080546    2.396181   -0.273303
      4          1           0       -4.177396    1.141286    0.662011
      5          6           0       -2.348291    0.354291   -0.351331
      6          1           0       -2.341210    0.525036   -1.432399
      7          6           0       -1.094454   -0.433998    0.018947
      8          1           0       -1.158799   -1.420651   -0.442292
      9          1           0       -1.094388   -0.600813    1.103594
     10          6           0        0.189472    0.269027   -0.401511
     11          1           0        0.226249    1.274775    0.033698
     12          1           0        0.202187    0.403801   -1.488111
     13          6           0        1.454987   -0.475381    0.010983
     14          1           0        1.500154   -1.449264   -0.486722
     15          1           0        1.386751   -0.692028    1.097108
     16          7           0        2.637813    0.252447   -0.370362
     17          1           0        2.663477    1.140380    0.185421
     18          6           0        3.910500   -0.453520   -0.158639
     19          7           0        4.228264   -0.561112    1.257782
     20          1           0        3.547717   -1.170761    1.691752
     21          1           0        4.147688    0.393081    1.679039
     22          7           0        4.953603    0.387204   -0.712469
     23          1           0        4.686341    0.632368   -1.660012
     24          1           0        4.939628    1.329049   -0.245421
     25          6           0       -3.634014   -0.445530   -0.088747
     26          8           0       -4.586522    0.257947    0.524834
     27          8           0       -3.789113   -1.585375   -0.425703
 ---------------------------------------------------------------------
                    Distance matrix (angstroms):
                    1          2          3          4          5
     1  N    0.000000
     2  H    1.012858   0.000000
     3  H    1.009044   1.620274   0.000000
     4  H    1.838303   2.395374   2.616554   0.000000
     5  C    1.470162   2.048692   2.060847   2.234244   0.000000
     6  H    2.085565   2.864777   2.216446   2.852700   1.094492
     7  C    2.513111   2.515565   3.011262   3.521304   1.526634
     8  H    3.426200   3.550013   3.930188   4.110345   2.138594
     9  H    2.753641   2.399847   3.442430   3.568591   2.145065
    10  C    3.068255   2.951068   3.113552   4.578368   2.539691
    11  H    2.717876   2.429982   2.583235   4.450246   2.761122
    12  H    3.443353   3.602215   3.264385   4.934334   2.792787
    13  C    4.461387   4.134097   4.563626   5.895862   3.909546
    14  H    5.091013   4.888390   5.258746   6.345480   4.252255
    15  H    4.568744   4.037091   4.841199   5.874528   4.140447
    16  N    5.322893   4.984842   5.183428   6.950029   4.987180
    17  H    5.140991   4.687948   4.928815   6.857455   5.101358
    18  C    6.719087   6.315501   6.635253   8.284379   6.313648
    19  N    7.101210   6.512743   7.133785   8.596989   6.832151
    20  H    6.774405   6.156641   6.947076   8.129163   6.423619
    21  H    6.855588   6.193976   6.827514   8.420284   6.806001
    22  N    7.581584   7.210830   7.328582   9.264609   7.310893
    23  H    7.474634   7.230976   7.129148   9.176961   7.160728
    24  H    7.417540   6.982943   7.100873   9.163996   7.353580
    25  C    2.450821   3.004845   3.243863   1.837631   1.536798
    26  O    2.565939   3.103152   3.389540   0.983102   2.405541
    27  O    3.589714   4.080522   4.335345   2.961176   2.417396
                    6          7          8          9         10
     6  H    0.000000
     7  C    2.140222   0.000000
     8  H    2.482762   1.091039   0.000000
     9  H    3.041934   1.097400   1.751013   0.000000
    10  C    2.744562   1.522989   2.162061   2.161078   0.000000
    11  H    3.050147   2.159717   3.067612   2.531124   1.096489
    12  H    2.546894   2.157408   2.504924   3.067131   1.095000
    13  C    4.182738   2.549789   2.816180   2.776481   1.525065
    14  H    4.421339   2.831688   2.659478   3.159212   2.162793
    15  H    4.666620   2.717607   3.062755   2.482824   2.145452
    16  N    5.098323   3.814785   4.149541   4.102429   2.448595
    17  H    5.295553   4.077797   4.643565   4.242210   2.687833
    18  C    6.454759   5.008142   5.168519   5.163703   3.798304
    19  N    7.181558   5.466461   5.713975   5.325033   4.444573
    20  H    6.878627   4.989073   5.173769   4.713800   4.211003
    21  H    7.197517   5.560577   5.995705   5.366407   4.473427
    22  N    7.331548   6.147222   6.379874   6.391593   4.775731
    23  H    7.032055   6.113398   6.313746   6.524958   4.683767
    24  H    7.420644   6.291929   6.692565   6.477157   4.869496
    25  C    2.102080   2.541869   2.683756   2.809891   3.902238
    26  O    2.990572   3.595726   3.937297   3.642449   4.865014
    27  O    2.750217   2.963877   2.635519   3.251101   4.389593
                   11         12         13         14         15
    11  H    0.000000
    12  H    1.753590   0.000000
    13  C    2.138541   2.142371   0.000000
    14  H    3.051894   2.474136   1.094623   0.000000
    15  H    2.519111   3.047522   1.109621   1.759200   0.000000
    16  N    2.650294   2.684128   1.440220   2.050275   2.147244
    17  H    2.445641   3.066139   2.025231   2.917422   2.412244
    18  C    4.074028   4.031635   2.461462   2.628481   2.828974
    19  N    4.570009   4.967925   3.041862   3.357781   2.849061
    20  H    4.445440   4.876817   2.772735   3.002637   2.291847
    21  H    4.343065   5.059440   3.284399   3.885124   3.023058
    22  N    4.867486   4.814338   3.675289   3.917893   4.142674
    23  H    4.813913   4.493265   3.802760   3.982661   4.499225
    24  H    4.721948   4.984346   3.932484   4.428005   4.302333
    25  C    4.228010   4.170854   5.090066   5.246479   5.164794
    26  O    4.943472   5.196629   6.107507   6.401987   6.075355
    27  O    4.951226   4.584322   5.378045   5.291370   5.468692
                   16         17         18         19         20
    16  N    0.000000
    17  H    1.047845   0.000000
    18  C    1.470697   2.052793   0.000000
    19  N    2.417078   2.548253   1.455609   0.000000
    20  H    2.665663   2.896944   2.017422   1.011507   0.000000
    21  H    2.549421   2.234331   2.037168   1.046152   1.675031
    22  N    2.344798   2.572578   1.449693   2.303760   3.191246
    23  H    2.450307   2.784902   2.008781   3.185553   3.972664
    24  H    2.544216   2.324238   2.060143   2.517611   3.455301
    25  C    6.316826   6.499898   7.544842   7.977588   7.434608
    26  O    7.279589   7.311387   8.554104   8.883047   8.340788
    27  O    6.684761   7.031297   7.786942   8.256002   7.647522
                   21         22         23         24         25
    21  H    0.000000
    22  N    2.523657   0.000000
    23  H    3.390674   1.014580   0.000000
    24  H    2.281831   1.051381   1.597056   0.000000
    25  C    8.023916   8.650413   8.535751   8.756770   0.000000
    26  O    8.811179   9.620895   9.534135   9.617073   1.333654
    27  O    8.446126   8.967072   8.847329   9.204199   1.198683
                   26         27
    26  O    0.000000
    27  O    2.221985   0.000000
 Stoichiometry    C6H15N4O2(1-)
 Framework group  C1[X(C6H15N4O2)]
 Deg. of freedom    75
 Full point group                 C1      NOp   1
 Largest Abelian subgroup         C1      NOp   1
 Largest concise Abelian subgroup C1      NOp   1
                         Standard orientation:                         
 ---------------------------------------------------------------------
 Center     Atomic      Atomic             Coordinates (Angstroms)
 Number     Number       Type             X           Y           Z
 ---------------------------------------------------------------------
      1          7           0       -2.449341    1.661522    0.316303
      2          1           0       -1.892651    1.659207    1.162454
      3          1           0       -2.080335    2.396841   -0.267915
      4          1           0       -4.177452    1.140148    0.664381
      5          6           0       -2.348325    0.355162   -0.350479
      6          1           0       -2.341095    0.528290   -1.431167
      7          6           0       -1.094630   -0.434099    0.018207
      8          1           0       -1.159044   -1.419724   -0.445215
      9          1           0       -1.094713   -0.603306    1.102484
     10          6           0        0.189433    0.269692   -0.400547
     11          1           0        0.226284    1.274473    0.036884
     12          1           0        0.202293    0.406861   -1.486846
     13          6           0        1.454806   -0.475782    0.010453
     14          1           0        1.499911   -1.448570   -0.489394
     15          1           0        1.386415   -0.694816    1.096089
     16          7           0        2.637768    0.252738   -0.369146
     17          1           0        2.663477    1.139439    0.188598
     18          6           0        3.910342   -0.453853   -0.158830
     19          7           0        4.227925   -0.564609    1.257387
     20          1           0        3.547251   -1.175129    1.689931
     21          1           0        4.147418    0.388662    1.680739
     22          7           0        4.953615    0.387960   -0.710681
     23          1           0        4.686496    0.635247   -1.657713
     24          1           0        4.939702    1.328774   -0.241558
     25          6           0       -3.634179   -0.445076   -0.089812
     26          8           0       -4.586672    0.257164    0.525207
     27          8           0       -3.789380   -1.584156   -0.429300
 ---------------------------------------------------------------------
 Rotational constants (GHZ):           2.7668746           0.2562287           0.2486456
 Standard basis: def2TZVP (5D, 7F)
 There are   522 symmetry adapted cartesian basis functions of A   symmetry.
 There are   462 symmetry adapted basis functions of A   symmetry.
   462 basis functions,   732 primitive gaussians,   522 cartesian basis functions
    48 alpha electrons       48 beta electrons
       nuclear repulsion energy       711.3482582806 Hartrees.
 NAtoms=   27 NActive=   27 NUniq=   27 SFac= 1.00D+00 NAtFMM=   60 NAOKFM=F Big=F
 Integral buffers will be    131072 words long.
 Raffenetti 2 integral format.
 Two-electron integral symmetry is turned on.
 Nuclear repulsion after empirical dispersion term =      711.3307523320 Hartrees.
 One-electron integrals computed using PRISM.
   1 Symmetry operations used in ECPInt.
 ECPInt:  NShTT=   18528 NPrTT=   54924 LenC2=   16268 LenP2D=   36013.
 LDataN:  DoStor=T MaxTD1= 6 Len=  172
 NBasis=   462 RedAO= T EigKep=  7.71D-05  NBF=   462
 NBsUse=   462 1.00D-06 EigRej= -1.00D+00 NBFU=   462
 ExpMin= 9.52D-02 ExpMax= 2.70D+04 ExpMxC= 9.22D+02 IAcc=4 IRadAn=    299974 AccDes= 0.00D+00
 Harris functional with IExCor= 4639 and IRadAn=  299974 diagonalized for initial guess.
 HarFok:  IExCor= 4639 AccDes= 0.00D+00 IRadAn=    299974 IDoV= 1 UseB2=F ITyADJ=14
 ICtDFT=  3500011 ScaDFX=  1.000000  1.000000  1.000000  1.000000
 FoFCou: FMM=F IPFlag=           0 FMFlag=      100000 FMFlg1=           0
         NFxFlg=           0 DoJE=T BraDBF=F KetDBF=T FulRan=T
         wScrn=  0.000000 ICntrl=       500 IOpCl=  0 I1Cent=   200000004 NGrid=           0
         NMat0=    1 NMatS0=      1 NMatT0=    0 NMatD0=    1 NMtDS0=    0 NMtDT0=    0
 Petite list used in FoFCou.
 Requested convergence on RMS density matrix=1.00D-08 within 128 cycles.
 Requested convergence on MAX density matrix=1.00D-06.
 Requested convergence on             energy=1.00D-06.
 No special actions if energy rises.
 Integral accuracy reduced to 1.0D-05 until final iterations.
 Initial convergence to 1.0D-05 achieved.  Increase integral accuracy.
 SCF Done:  E(RwB97XD) =  -607.132432835     A.U. after   17 cycles
            NFock= 17  Conv=0.23D-08     -V/T= 2.0045

 **********************************************************************

            Population analysis using the SCF Density.

 **********************************************************************

 Orbital symmetries:
       Occupied  (A) (A) (A) (A) (A) (A) (A) (A) (A) (A) (A) (A)
                 (A) (A) (A) (A) (A) (A) (A) (A) (A) (A) (A) (A)
                 (A) (A) (A) (A) (A) (A) (A) (A) (A) (A) (A) (A)
                 (A) (A) (A) (A) (A) (A) (A) (A) (A) (A) (A) (A)
       Virtual   (A) (A) (A) (A) (A) (A) (A) (A) (A) (A) (A) (A)
                 (A) (A) (A) (A) (A) (A) (A) (A) (A) (A) (A) (A)
                 (A) (A) (A) (A) (A) (A) (A) (A) (A) (A) (A) (A)
                 (A) (A) (A) (A) (A) (A) (A) (A) (A) (A) (A) (A)
                 (A) (A) (A) (A) (A) (A) (A) (A) (A) (A) (A) (A)
                 (A) (A) (A) (A) (A) (A) (A) (A) (A) (A) (A) (A)
                 (A) (A) (A) (A) (A) (A) (A) (A) (A) (A) (A) (A)
                 (A) (A) (A) (A) (A) (A) (A) (A) (A) (A) (A) (A)
                 (A) (A) (A) (A) (A) (A) (A) (A) (A) (A) (A) (A)
                 (A) (A) (A) (A) (A) (A) (A) (A) (A) (A) (A) (A)
                 (A) (A) (A) (A) (A) (A) (A) (A) (A) (A) (A) (A)
                 (A) (A) (A) (A) (A) (A) (A) (A) (A) (A) (A) (A)
                 (A) (A) (A) (A) (A) (A) (A) (A) (A) (A) (A) (A)
                 (A) (A) (A) (A) (A) (A) (A) (A) (A) (A) (A) (A)
                 (A) (A) (A) (A) (A) (A) (A) (A) (A) (A) (A) (A)
                 (A) (A) (A) (A) (A) (A) (A) (A) (A) (A) (A) (A)
                 (A) (A) (A) (A) (A) (A) (A) (A) (A) (A) (A) (A)
                 (A) (A) (A) (A) (A) (A) (A) (A) (A) (A) (A) (A)
                 (A) (A) (A) (A) (A) (A) (A) (A) (A) (A) (A) (A)
                 (A) (A) (A) (A) (A) (A) (A) (A) (A) (A) (A) (A)
                 (A) (A) (A) (A) (A) (A) (A) (A) (A) (A) (A) (A)
                 (A) (A) (A) (A) (A) (A) (A) (A) (A) (A) (A) (A)
                 (A) (A) (A) (A) (A) (A) (A) (A) (A) (A) (A) (A)
                 (A) (A) (A) (A) (A) (A) (A) (A) (A) (A) (A) (A)
                 (A) (A) (A) (A) (A) (A) (A) (A) (A) (A) (A) (A)
                 (A) (A) (A) (A) (A) (A) (A) (A) (A) (A) (A) (A)
                 (A) (A) (A) (A) (A) (A) (A) (A) (A) (A) (A) (A)
                 (A) (A) (A) (A) (A) (A) (A) (A) (A) (A) (A) (A)
                 (A) (A) (A) (A) (A) (A) (A) (A) (A) (A) (A) (A)
                 (A) (A) (A) (A) (A) (A) (A) (A) (A) (A) (A) (A)
                 (A) (A) (A) (A) (A) (A) (A) (A) (A) (A) (A) (A)
                 (A) (A) (A) (A) (A) (A) (A) (A) (A) (A) (A) (A)
                 (A) (A) (A) (A) (A) (A) (A) (A) (A) (A) (A) (A)
                 (A) (A) (A) (A) (A) (A) (A) (A) (A) (A) (A) (A)
                 (A) (A) (A) (A) (A) (A)
 The electronic state is 1-A.
 Alpha  occ. eigenvalues --  -19.20421 -19.14476 -14.37147 -14.23906 -14.22530
 Alpha  occ. eigenvalues --  -14.22207 -10.32613 -10.25468 -10.19392 -10.16790
 Alpha  occ. eigenvalues --  -10.15866 -10.10000  -1.12372  -1.03769  -0.94111
 Alpha  occ. eigenvalues --   -0.85534  -0.80062  -0.77099  -0.73936  -0.71248
 Alpha  occ. eigenvalues --   -0.62979  -0.60595  -0.56970  -0.54597  -0.51432
 Alpha  occ. eigenvalues --   -0.48813  -0.47886  -0.45818  -0.45276  -0.43371
 Alpha  occ. eigenvalues --   -0.41563  -0.40410  -0.39053  -0.37216  -0.36348
 Alpha  occ. eigenvalues --   -0.34906  -0.33912  -0.32683  -0.31886  -0.31178
 Alpha  occ. eigenvalues --   -0.30463  -0.28816  -0.28088  -0.26197  -0.18591
 Alpha  occ. eigenvalues --   -0.15560  -0.11878  -0.03613
 Alpha virt. eigenvalues --    0.15791   0.18121   0.20614   0.22635   0.23410
 Alpha virt. eigenvalues --    0.25102   0.25772   0.26600   0.27637   0.28090
 Alpha virt. eigenvalues --    0.29990   0.30996   0.32232   0.32765   0.33070
 Alpha virt. eigenvalues --    0.35040   0.35164   0.35359   0.36260   0.37533
 Alpha virt. eigenvalues --    0.37813   0.39302   0.40666   0.42125   0.43967
 Alpha virt. eigenvalues --    0.43983   0.44777   0.45616   0.46276   0.47424
 Alpha virt. eigenvalues --    0.47718   0.48630   0.49472   0.50860   0.51367
 Alpha virt. eigenvalues --    0.52533   0.53456   0.54032   0.54847   0.55459
 Alpha virt. eigenvalues --    0.56130   0.56317   0.57354   0.57754   0.59357
 Alpha virt. eigenvalues --    0.59574   0.60759   0.61429   0.61817   0.62386
 Alpha virt. eigenvalues --    0.62774   0.63807   0.64008   0.64795   0.65271
 Alpha virt. eigenvalues --    0.65709   0.66203   0.66892   0.67781   0.69078
 Alpha virt. eigenvalues --    0.69596   0.70120   0.70909   0.71884   0.72024
 Alpha virt. eigenvalues --    0.72152   0.73336   0.73833   0.74433   0.75425
 Alpha virt. eigenvalues --    0.77312   0.78264   0.78690   0.79344   0.80685
 Alpha virt. eigenvalues --    0.82233   0.82421   0.83635   0.84490   0.86002
 Alpha virt. eigenvalues --    0.86256   0.88821   0.90505   0.91042   0.92862
 Alpha virt. eigenvalues --    0.94835   0.96357   0.97946   0.99736   1.00827
 Alpha virt. eigenvalues --    1.02436   1.03799   1.06100   1.06363   1.08004
 Alpha virt. eigenvalues --    1.09057   1.09807   1.10164   1.13183   1.15409
 Alpha virt. eigenvalues --    1.17029   1.17445   1.18741   1.21158   1.22769
 Alpha virt. eigenvalues --    1.23785   1.26269   1.28247   1.29869   1.30489
 Alpha virt. eigenvalues --    1.33319   1.33935   1.36439   1.38046   1.40503
 Alpha virt. eigenvalues --    1.41124   1.43160   1.46341   1.47497   1.48698
 Alpha virt. eigenvalues --    1.49434   1.50862   1.52394   1.52740   1.53967
 Alpha virt. eigenvalues --    1.55024   1.55906   1.57208   1.58178   1.60397
 Alpha virt. eigenvalues --    1.61384   1.63448   1.64812   1.65546   1.66762
 Alpha virt. eigenvalues --    1.67420   1.70179   1.70841   1.72425   1.73572
 Alpha virt. eigenvalues --    1.73829   1.75757   1.77743   1.78326   1.80044
 Alpha virt. eigenvalues --    1.80329   1.81920   1.82859   1.85191   1.86744
 Alpha virt. eigenvalues --    1.88765   1.89485   1.92956   1.93754   1.95350
 Alpha virt. eigenvalues --    1.95454   1.97068   1.98691   1.99194   2.00945
 Alpha virt. eigenvalues --    2.02444   2.04068   2.05270   2.06066   2.08046
 Alpha virt. eigenvalues --    2.09396   2.09949   2.10753   2.11469   2.13490
 Alpha virt. eigenvalues --    2.15718   2.16009   2.16609   2.18339   2.20495
 Alpha virt. eigenvalues --    2.21304   2.22141   2.22497   2.23558   2.24991
 Alpha virt. eigenvalues --    2.25719   2.26633   2.27097   2.28712   2.29284
 Alpha virt. eigenvalues --    2.31682   2.32902   2.33608   2.36878   2.37463
 Alpha virt. eigenvalues --    2.40128   2.40464   2.43540   2.44401   2.45365
 Alpha virt. eigenvalues --    2.46016   2.48387   2.48879   2.51490   2.52166
 Alpha virt. eigenvalues --    2.54673   2.56322   2.57988   2.58576   2.60080
 Alpha virt. eigenvalues --    2.60922   2.62262   2.64870   2.65629   2.68122
 Alpha virt. eigenvalues --    2.68965   2.69025   2.70843   2.71697   2.73121
 Alpha virt. eigenvalues --    2.75173   2.76331   2.77559   2.79186   2.80157
 Alpha virt. eigenvalues --    2.81939   2.83085   2.83708   2.84179   2.86370
 Alpha virt. eigenvalues --    2.88770   2.89511   2.90253   2.90740   2.91078
 Alpha virt. eigenvalues --    2.94517   2.94844   2.95678   2.96406   2.97290
 Alpha virt. eigenvalues --    2.99776   3.03985   3.05101   3.06524   3.08067
 Alpha virt. eigenvalues --    3.09160   3.10358   3.12221   3.13465   3.14605
 Alpha virt. eigenvalues --    3.16972   3.18819   3.21602   3.22145   3.25179
 Alpha virt. eigenvalues --    3.25848   3.26117   3.28584   3.29286   3.30064
 Alpha virt. eigenvalues --    3.31866   3.32086   3.38066   3.38995   3.41285
 Alpha virt. eigenvalues --    3.41987   3.42850   3.44830   3.45181   3.46293
 Alpha virt. eigenvalues --    3.46608   3.48778   3.49873   3.51265   3.51838
 Alpha virt. eigenvalues --    3.52591   3.53635   3.54437   3.56650   3.59000
 Alpha virt. eigenvalues --    3.60755   3.62481   3.64007   3.64843   3.66002
 Alpha virt. eigenvalues --    3.68114   3.68949   3.69599   3.70820   3.74081
 Alpha virt. eigenvalues --    3.75427   3.76562   3.77721   3.81441   3.82022
 Alpha virt. eigenvalues --    3.83459   3.85653   3.86029   3.88344   3.92037
 Alpha virt. eigenvalues --    3.93951   3.95049   3.99574   4.04144   4.04816
 Alpha virt. eigenvalues --    4.06116   4.08022   4.11334   4.12457   4.13696
 Alpha virt. eigenvalues --    4.14103   4.18042   4.20522   4.21156   4.21867
 Alpha virt. eigenvalues --    4.26374   4.31483   4.32801   4.36552   4.37719
 Alpha virt. eigenvalues --    4.40521   4.43711   4.48588   4.50873   4.53620
 Alpha virt. eigenvalues --    4.53928   4.57797   4.58736   4.59924   4.61020
 Alpha virt. eigenvalues --    4.64110   4.66311   4.70307   4.74353   4.74726
 Alpha virt. eigenvalues --    4.77546   4.81543   4.84590   4.88324   4.89385
 Alpha virt. eigenvalues --    4.91622   4.93507   4.97640   4.98919   4.99355
 Alpha virt. eigenvalues --    5.00992   5.02062   5.07416   5.09597   5.10293
 Alpha virt. eigenvalues --    5.11887   5.12922   5.16899   5.18726   5.20618
 Alpha virt. eigenvalues --    5.24351   5.26053   5.28208   5.29959   5.30670
 Alpha virt. eigenvalues --    5.34056   5.35056   5.35235   5.38131   5.38574
 Alpha virt. eigenvalues --    5.41347   5.42271   5.45153   5.46694   5.48811
 Alpha virt. eigenvalues --    5.49605   5.52970   5.56677   5.59572   5.61398
 Alpha virt. eigenvalues --    5.63843   5.68271   5.70623   5.72318   5.72500
 Alpha virt. eigenvalues --    5.74007   5.76248   5.80427   5.86925   5.87749
 Alpha virt. eigenvalues --    5.93279   5.94143   5.96570   6.01193   6.10708
 Alpha virt. eigenvalues --    6.16560   6.20191   6.25858   6.35950   6.36440
 Alpha virt. eigenvalues --    6.53630   6.58950   6.63520   6.67847   6.89956
 Alpha virt. eigenvalues --    6.90132   6.97029   7.00754   7.19116   7.30569
 Alpha virt. eigenvalues --    7.34110   7.46541  22.62025  22.71289  22.73365
 Alpha virt. eigenvalues --   22.76943  22.79939  23.51681  32.20082  32.22168
 Alpha virt. eigenvalues --   32.30647  32.74897  44.02111  44.08741
          Condensed to atoms (all electrons):
               1          2          3          4          5          6
     1  N    6.771195   0.368698   0.372494   0.056217   0.142704  -0.044807
     2  H    0.368698   0.441770  -0.028763  -0.001653  -0.033596   0.005968
     3  H    0.372494  -0.028763   0.442054  -0.000773  -0.019369  -0.010993
     4  H    0.056217  -0.001653  -0.000773   0.358826  -0.017513   0.001364
     5  C    0.142704  -0.033596  -0.019369  -0.017513   5.404136   0.404353
     6  H   -0.044807   0.005968  -0.010993   0.001364   0.404353   0.578475
     7  C   -0.050451  -0.005907  -0.002917   0.003811   0.223341  -0.035779
     8  H    0.008512   0.000338  -0.000453  -0.000234  -0.044723  -0.003127
     9  H   -0.010422   0.004964  -0.000161  -0.000098  -0.024925   0.008543
    10  C    0.010052  -0.000141   0.001701  -0.000244  -0.040963  -0.003578
    11  H    0.017708   0.003237  -0.000422   0.000006  -0.024021  -0.000811
    12  H   -0.001736   0.000348   0.000414  -0.000046   0.005959   0.003027
    13  C    0.001913  -0.000497   0.000178   0.000005  -0.014483   0.000722
    14  H   -0.000105   0.000051  -0.000006   0.000000   0.001671  -0.000010
    15  H    0.000066  -0.000009   0.000047  -0.000002   0.002197  -0.000245
    16  N    0.000117   0.000005   0.000008  -0.000000  -0.000984  -0.000071
    17  H   -0.000182   0.000109   0.000004  -0.000001   0.001141  -0.000056
    18  C    0.000017  -0.000009   0.000000  -0.000000  -0.000151   0.000004
    19  N   -0.000000   0.000002   0.000000   0.000000   0.000025  -0.000001
    20  H   -0.000000   0.000000  -0.000000   0.000000   0.000007   0.000000
    21  H   -0.000001   0.000005   0.000000  -0.000000   0.000027  -0.000001
    22  N   -0.000000   0.000000   0.000000  -0.000000  -0.000002  -0.000000
    23  H   -0.000000  -0.000000   0.000000   0.000000   0.000000  -0.000000
    24  H   -0.000000   0.000000   0.000000  -0.000000   0.000007  -0.000000
    25  C   -0.006125  -0.000627   0.000449  -0.034423   0.233397  -0.014186
    26  O   -0.045384   0.000868   0.000307   0.288910  -0.123786   0.001699
    27  O    0.005318  -0.000022  -0.000214   0.005001  -0.131372   0.002425
               7          8          9         10         11         12
     1  N   -0.050451   0.008512  -0.010422   0.010052   0.017708  -0.001736
     2  H   -0.005907   0.000338   0.004964  -0.000141   0.003237   0.000348
     3  H   -0.002917  -0.000453  -0.000161   0.001701  -0.000422   0.000414
     4  H    0.003811  -0.000234  -0.000098  -0.000244   0.000006  -0.000046
     5  C    0.223341  -0.044723  -0.024925  -0.040963  -0.024021   0.005959
     6  H   -0.035779  -0.003127   0.008543  -0.003578  -0.000811   0.003027
     7  C    5.318094   0.396252   0.389849   0.144019  -0.057083  -0.019885
     8  H    0.396252   0.532433  -0.016395  -0.017616   0.007856  -0.006883
     9  H    0.389849  -0.016395   0.599513  -0.058500  -0.006009   0.008378
    10  C    0.144019  -0.017616  -0.058500   5.298838   0.411721   0.355454
    11  H   -0.057083   0.007856  -0.006009   0.411721   0.667195  -0.042641
    12  H   -0.019885  -0.006883   0.008378   0.355454  -0.042641   0.625081
    13  C   -0.056592   0.005390   0.006228   0.141773  -0.032312  -0.025177
    14  H   -0.027815   0.003417  -0.001408   0.046064   0.012284  -0.014253
    15  H    0.048435  -0.002739   0.004981  -0.093630  -0.014922   0.018628
    16  N    0.011432   0.000138   0.000219  -0.100483  -0.005298   0.018865
    17  H   -0.002448  -0.000161  -0.000381   0.040070   0.018867  -0.000526
    18  C   -0.002772  -0.000091   0.000153  -0.006054  -0.001796  -0.000119
    19  N    0.001493  -0.000005  -0.000137   0.006905  -0.000285   0.000202
    20  H   -0.000157   0.000012  -0.000043   0.001590   0.000071  -0.000125
    21  H    0.000037  -0.000014  -0.000052   0.005691   0.000954   0.000076
    22  N   -0.000109  -0.000000  -0.000001  -0.001156  -0.000056  -0.000138
    23  H    0.000074  -0.000002   0.000001  -0.000397  -0.000084   0.000357
    24  H    0.000003  -0.000003  -0.000001   0.002469   0.000303   0.000226
    25  C   -0.018195  -0.002249  -0.002186  -0.004055  -0.000423   0.000699
    26  O   -0.001459   0.000947   0.002264  -0.000663  -0.000009   0.000012
    27  O    0.011584   0.012345   0.000308  -0.001352  -0.000079   0.000025
              13         14         15         16         17         18
     1  N    0.001913  -0.000105   0.000066   0.000117  -0.000182   0.000017
     2  H   -0.000497   0.000051  -0.000009   0.000005   0.000109  -0.000009
     3  H    0.000178  -0.000006   0.000047   0.000008   0.000004   0.000000
     4  H    0.000005   0.000000  -0.000002  -0.000000  -0.000001  -0.000000
     5  C   -0.014483   0.001671   0.002197  -0.000984   0.001141  -0.000151
     6  H    0.000722  -0.000010  -0.000245  -0.000071  -0.000056   0.000004
     7  C   -0.056592  -0.027815   0.048435   0.011432  -0.002448  -0.002772
     8  H    0.005390   0.003417  -0.002739   0.000138  -0.000161  -0.000091
     9  H    0.006228  -0.001408   0.004981   0.000219  -0.000381   0.000153
    10  C    0.141773   0.046064  -0.093630  -0.100483   0.040070  -0.006054
    11  H   -0.032312   0.012284  -0.014922  -0.005298   0.018867  -0.001796
    12  H   -0.025177  -0.014253   0.018628   0.018865  -0.000526  -0.000119
    13  C    5.210236   0.281910   0.344491   0.436423  -0.165841  -0.066989
    14  H    0.281910   0.678199  -0.070982  -0.055406   0.043796   0.035027
    15  H    0.344491  -0.070982   0.863234  -0.103561  -0.005715  -0.032081
    16  N    0.436423  -0.055406  -0.103561   6.812428   0.147988   0.525904
    17  H   -0.165841   0.043796  -0.005715   0.147988   1.010857  -0.285028
    18  C   -0.066989   0.035027  -0.032081   0.525904  -0.285028   5.699469
    19  N    0.014190  -0.003049   0.040346  -0.162763  -0.015807   0.350047
    20  H    0.004482   0.001268  -0.002130   0.005350   0.000056  -0.073429
    21  H   -0.015851   0.008264   0.006402  -0.043943   0.128408  -0.278650
    22  N    0.007307   0.003316  -0.000253  -0.173854   0.025966   0.416740
    23  H    0.001275  -0.000591   0.000502   0.014622   0.001093  -0.078192
    24  H   -0.007737   0.002669   0.001200  -0.044105   0.103929  -0.251888
    25  C   -0.000298  -0.000139   0.000415  -0.000002   0.000008  -0.000003
    26  O    0.000004  -0.000001  -0.000001  -0.000000  -0.000000   0.000000
    27  O    0.000197  -0.000029  -0.000004  -0.000000   0.000000   0.000000
              19         20         21         22         23         24
     1  N   -0.000000  -0.000000  -0.000001  -0.000000  -0.000000  -0.000000
     2  H    0.000002   0.000000   0.000005   0.000000  -0.000000   0.000000
     3  H    0.000000  -0.000000   0.000000   0.000000   0.000000   0.000000
     4  H    0.000000   0.000000  -0.000000  -0.000000   0.000000  -0.000000
     5  C    0.000025   0.000007   0.000027  -0.000002   0.000000   0.000007
     6  H   -0.000001   0.000000  -0.000001  -0.000000  -0.000000  -0.000000
     7  C    0.001493  -0.000157   0.000037  -0.000109   0.000074   0.000003
     8  H   -0.000005   0.000012  -0.000014  -0.000000  -0.000002  -0.000003
     9  H   -0.000137  -0.000043  -0.000052  -0.000001   0.000001  -0.000001
    10  C    0.006905   0.001590   0.005691  -0.001156  -0.000397   0.002469
    11  H   -0.000285   0.000071   0.000954  -0.000056  -0.000084   0.000303
    12  H    0.000202  -0.000125   0.000076  -0.000138   0.000357   0.000226
    13  C    0.014190   0.004482  -0.015851   0.007307   0.001275  -0.007737
    14  H   -0.003049   0.001268   0.008264   0.003316  -0.000591   0.002669
    15  H    0.040346  -0.002130   0.006402  -0.000253   0.000502   0.001200
    16  N   -0.162763   0.005350  -0.043943  -0.173854   0.014622  -0.044105
    17  H   -0.015807   0.000056   0.128408   0.025966   0.001093   0.103929
    18  C    0.350047  -0.073429  -0.278650   0.416740  -0.078192  -0.251888
    19  N    6.738452   0.389117   0.243590  -0.093924   0.013539  -0.025690
    20  H    0.389117   0.542917  -0.049894   0.009566  -0.001463  -0.001230
    21  H    0.243590  -0.049894   0.891694  -0.007573  -0.000673   0.095232
    22  N   -0.093924   0.009566  -0.007573   6.684706   0.366913   0.266658
    23  H    0.013539  -0.001463  -0.000673   0.366913   0.565692  -0.043151
    24  H   -0.025690  -0.001230   0.095232   0.266658  -0.043151   0.865228
    25  C    0.000000  -0.000000   0.000000  -0.000000   0.000000   0.000000
    26  O   -0.000000  -0.000000   0.000000  -0.000000  -0.000000   0.000000
    27  O    0.000000  -0.000000   0.000000   0.000000   0.000000   0.000000
              25         26         27
     1  N   -0.006125  -0.045384   0.005318
     2  H   -0.000627   0.000868  -0.000022
     3  H    0.000449   0.000307  -0.000214
     4  H   -0.034423   0.288910   0.005001
     5  C    0.233397  -0.123786  -0.131372
     6  H   -0.014186   0.001699   0.002425
     7  C   -0.018195  -0.001459   0.011584
     8  H   -0.002249   0.000947   0.012345
     9  H   -0.002186   0.002264   0.000308
    10  C   -0.004055  -0.000663  -0.001352
    11  H   -0.000423  -0.000009  -0.000079
    12  H    0.000699   0.000012   0.000025
    13  C   -0.000298   0.000004   0.000197
    14  H   -0.000139  -0.000001  -0.000029
    15  H    0.000415  -0.000001  -0.000004
    16  N   -0.000002  -0.000000  -0.000000
    17  H    0.000008  -0.000000   0.000000
    18  C   -0.000003   0.000000   0.000000
    19  N    0.000000  -0.000000   0.000000
    20  H   -0.000000  -0.000000  -0.000000
    21  H    0.000000   0.000000   0.000000
    22  N   -0.000000  -0.000000   0.000000
    23  H    0.000000  -0.000000   0.000000
    24  H    0.000000   0.000000   0.000000
    25  C    4.436035   0.392314   0.700648
    26  O    0.392314   7.953834  -0.085404
    27  O    0.700648  -0.085404   7.840561
 Mulliken charges:
               1
     1  N   -0.595796
     2  H    0.244859
     3  H    0.246414
     4  H    0.340847
     5  C    0.056925
     6  H    0.107085
     7  C   -0.266855
     8  H    0.127054
     9  H    0.095319
    10  C   -0.137516
    11  H    0.046048
    12  H    0.073779
    13  C   -0.070947
    14  H    0.055856
    15  H   -0.004668
    16  N   -0.283027
    17  H   -0.046147
    18  C    0.049890
    19  N   -0.496247
    20  H    0.174037
    21  H    0.016273
    22  N   -0.504106
    23  H    0.160487
    24  H    0.035880
    25  C    0.318944
    26  O   -0.384453
    27  O   -0.359934
 Sum of Mulliken charges =  -1.00000
 Mulliken charges with hydrogens summed into heavy atoms:
               1
     1  N   -0.104523
     5  C    0.164010
     7  C   -0.044481
    10  C   -0.017690
    13  C   -0.019759
    16  N   -0.329174
    18  C    0.049890
    19  N   -0.305937
    22  N   -0.307740
    25  C    0.318944
    26  O   -0.043607
    27  O   -0.359934
 Electronic spatial extent (au):  <R**2>=           4291.3210
 Charge=             -1.0000 electrons
 Dipole moment (field-independent basis, Debye):
    X=            -14.1014    Y=              5.7900    Z=              0.8634  Tot=             15.2683
 Quadrupole moment (field-independent basis, Debye-Ang):
   XX=           -197.7683   YY=            -83.3064   ZZ=            -78.7553
   XY=             -2.8297   XZ=              0.4070   YZ=             -1.7326
 Traceless Quadrupole moment (field-independent basis, Debye-Ang):
   XX=            -77.8249   YY=             36.6369   ZZ=             41.1880
   XY=             -2.8297   XZ=              0.4070   YZ=             -1.7326
 Octapole moment (field-independent basis, Debye-Ang**2):
  XXX=           -355.8446  YYY=             20.8034  ZZZ=             -3.2614  XYY=            -19.2450
  XXY=             94.3584  XXZ=             -8.2218  XZZ=            -34.3151  YZZ=              5.2479
  YYZ=              3.8170  XYZ=              3.7859
 Hexadecapole moment (field-independent basis, Debye-Ang**3):
 XXXX=          -8082.4152 YYYY=           -422.9752 ZZZZ=           -267.4228 XXXY=             54.0980
 XXXZ=            -25.5624 YYYX=            -26.3332 YYYZ=            -10.8737 ZZZX=            -33.9966
 ZZZY=             -0.6586 XXYY=          -1040.6069 XXZZ=           -950.0261 YYZZ=           -113.3724
 XXYZ=            -15.4641 YYXZ=             -7.1308 ZZXY=              4.4772
 N-N= 7.113307523320D+02 E-N=-2.854457949952D+03  KE= 6.044129102120D+02
 Unable to Open any file for archive entry.
 1\1\GINC-WATER\SP\RwB97XD\def2TZVP\C6H15N4O2(1-)\DAYALYZ\11-Jun-2025\0
 \\# wB97xD/Def2TZVP SCF(Tight) Int(Grid=299974)\\Displacement_0.06\\-1
 ,1\N,0,-2.449391,1.662106,0.312579\H,0,-1.892601,1.661727,1.158668\H,0
 ,-2.080546,2.396181,-0.273303\H,0,-4.177396,1.141286,0.662011\C,0,-2.3
 48291,0.354291,-0.351331\H,0,-2.34121,0.525036,-1.432399\C,0,-1.094454
 ,-0.433998,0.018947\H,0,-1.158799,-1.420651,-0.442292\H,0,-1.094388,-0
 .600813,1.103594\C,0,0.189472,0.269027,-0.401511\H,0,0.226249,1.274775
 ,0.033698\H,0,0.202187,0.403801,-1.488111\C,0,1.454987,-0.475381,0.010
 983\H,0,1.500154,-1.449264,-0.486722\H,0,1.386751,-0.692028,1.097108\N
 ,0,2.637813,0.252447,-0.370362\H,0,2.663477,1.14038,0.185421\C,0,3.910
 5,-0.45352,-0.158639\N,0,4.228264,-0.561112,1.257782\H,0,3.547717,-1.1
 70761,1.691752\H,0,4.147688,0.393081,1.679039\N,0,4.953603,0.387204,-0
 .712469\H,0,4.686341,0.632368,-1.660012\H,0,4.939628,1.329049,-0.24542
 1\C,0,-3.634014,-0.44553,-0.088747\O,0,-4.586522,0.257947,0.524834\O,0
 ,-3.789113,-1.585375,-0.425703\\Version=ES64L-G16RevC.01\State=1-A\HF=
 -607.1324328\RMSD=2.278e-09\Dipole=-5.5481801,2.2780222,0.3353179\Quad
 rupole=-57.8603394,27.2324717,30.6278677,-2.1139204,0.317866,-1.280386
 7\PG=C01 [X(C6H15N4O2)]\\@
 The archive entry for this job was punched.


 WE HAVE SEEN THAT MAN ON THE AVERAGE DOES NOT LIVE ABOVE
 TWO-AND-TWENTY YEARS.  DURING THESE TWO AND TWENTY
 YEARS HE IS LIABLE TO TWO AND TWENTY THOUSAND EVILS,
 MANY OF WHICH ARE INCURABLE.  YET EVEN IN THIS DREADFUL STATE
 MEN STILL STRUT AND POSE ON THE STAGE OF LIFE.
 THEY MAKE LOVE AT THE RISK OF DESTRUCTION,
 INTRIGUE, CARRY ON WAR, AND FORM PROJECTS, JUST AS IF THEY
 WERE TO LIVE IN LUXURY AND HAPPINESS FOR A THOUSAND
 AGES.

                                              -- VOLTAIRE
 Job cpu time:       0 days  0 hours 49 minutes 38.0 seconds.
 Elapsed time:       0 days  0 hours 49 minutes 44.3 seconds.
 File lengths (MBytes):  RWF=    118 Int=      0 D2E=      0 Chk=     13 Scr=      1
 Normal termination of Gaussian 16 at Wed Jun 11 01:23:04 2025.
