 Entering Gaussian System, Link 0=g16
 Initial command:
 /opt/gaussian/g16/l1.exe "/scratch/Gau-4020130.inp" -scrdir="/scratch/"
 Entering Link 1 = /opt/gaussian/g16/l1.exe PID=   4020131.
  
 Copyright (c) 1988-2019, Gaussian, Inc.  All Rights Reserved.
  
 This is part of the Gaussian(R) 16 program.  It is based on
 the Gaussian(R) 09 system (copyright 2009, Gaussian, Inc.),
 the Gaussian(R) 03 system (copyright 2003, Gaussian, Inc.),
 the Gaussian(R) 98 system (copyright 1998, Gaussian, Inc.),
 the Gaussian(R) 94 system (copyright 1995, Gaussian, Inc.),
 the Gaussian 92(TM) system (copyright 1992, Gaussian, Inc.),
 the Gaussian 90(TM) system (copyright 1990, Gaussian, Inc.),
 the Gaussian 88(TM) system (copyright 1988, Gaussian, Inc.),
 the Gaussian 86(TM) system (copyright 1986, Carnegie Mellon
 University), and the Gaussian 82(TM) system (copyright 1983,
 Carnegie Mellon University). Gaussian is a federally registered
 trademark of Gaussian, Inc.
  
 This software contains proprietary and confidential information,
 including trade secrets, belonging to Gaussian, Inc.
  
 This software is provided under written license and may be
 used, copied, transmitted, or stored only in accord with that
 written license.
  
 The following legend is applicable only to US Government
 contracts under FAR:
  
                    RESTRICTED RIGHTS LEGEND
  
 Use, reproduction and disclosure by the US Government is
 subject to restrictions as set forth in subparagraphs (a)
 and (c) of the Commercial Computer Software - Restricted
 Rights clause in FAR 52.227-19.
  
 Gaussian, Inc.
 340 Quinnipiac St., Bldg. 40, Wallingford CT 06492
  
  
 ---------------------------------------------------------------
 Warning -- This program may not be used in any manner that
 competes with the business of Gaussian, Inc. or will provide
 assistance to any competitor of Gaussian, Inc.  The licensee
 of this program is prohibited from giving any competitor of
 Gaussian, Inc. access to this program.  By using this program,
 the user acknowledges that Gaussian, Inc. is engaged in the
 business of creating and licensing software in the field of
 computational chemistry and represents and warrants to the
 licensee that it is not a competitor of Gaussian, Inc. and that
 it will not use this program in any manner prohibited above.
 ---------------------------------------------------------------
  

 Cite this work as:
 Gaussian 16, Revision C.01,
 M. J. Frisch, G. W. Trucks, H. B. Schlegel, G. E. Scuseria, 
 M. A. Robb, J. R. Cheeseman, G. Scalmani, V. Barone, 
 G. A. Petersson, H. Nakatsuji, X. Li, M. Caricato, A. V. Marenich, 
 J. Bloino, B. G. Janesko, R. Gomperts, B. Mennucci, H. P. Hratchian, 
 J. V. Ortiz, A. F. Izmaylov, J. L. Sonnenberg, D. Williams-Young, 
 F. Ding, F. Lipparini, F. Egidi, J. Goings, B. Peng, A. Petrone, 
 T. Henderson, D. Ranasinghe, V. G. Zakrzewski, J. Gao, N. Rega, 
 G. Zheng, W. Liang, M. Hada, M. Ehara, K. Toyota, R. Fukuda, 
 J. Hasegawa, M. Ishida, T. Nakajima, Y. Honda, O. Kitao, H. Nakai, 
 T. Vreven, K. Throssell, J. A. Montgomery, Jr., J. E. Peralta, 
 F. Ogliaro, M. J. Bearpark, J. J. Heyd, E. N. Brothers, K. N. Kudin, 
 V. N. Staroverov, T. A. Keith, R. Kobayashi, J. Normand, 
 K. Raghavachari, A. P. Rendell, J. C. Burant, S. S. Iyengar, 
 J. Tomasi, M. Cossi, J. M. Millam, M. Klene, C. Adamo, R. Cammi, 
 J. W. Ochterski, R. L. Martin, K. Morokuma, O. Farkas, 
 J. B. Foresman, and D. J. Fox, Gaussian, Inc., Wallingford CT, 2019.
 
 ******************************************
 Gaussian 16:  ES64L-G16RevC.01  3-Jul-2019
                10-Jun-2025 
 ******************************************
 ---------------------------------------------
 # wB97xD/Def2TZVP SCF(Tight) Int(Grid=299974)
 ---------------------------------------------
 1/38=1,172=1/1;
 2/12=2,17=6,18=5,40=1/2;
 3/5=44,7=101,11=2,25=1,30=1,74=-58,75=299974/1,2,3;
 4//1;
 5/5=2,32=2,38=5/2;
 6/7=2,8=2,9=2,10=2,28=1/1;
 99/5=1,9=1/99;
 ------------------
 Displacement_-0.05
 ------------------
 Symbolic Z-matrix:
 Charge = -1 Multiplicity = 1
 N                    -2.44939   1.66211   0.31258 
 H                    -1.8926    1.66173   1.15867 
 H                    -2.08055   2.39618  -0.2733 
 H                    -4.1774    1.14129   0.66201 
 C                    -2.34829   0.35429  -0.35133 
 H                    -2.34121   0.52504  -1.4324 
 C                    -1.09445  -0.434     0.01895 
 H                    -1.1588   -1.42065  -0.44229 
 H                    -1.09439  -0.60081   1.10359 
 C                     0.18947   0.26903  -0.40151 
 H                     0.22625   1.27477   0.0337 
 H                     0.20219   0.4038   -1.48811 
 C                     1.45499  -0.47538   0.01098 
 H                     1.50015  -1.44816  -0.48782 
 H                     1.38785  -0.69093   1.09711 
 N                     2.63781   0.25245  -0.37036 
 H                     2.66348   1.14038   0.18432 
 C                     3.9116   -0.45352  -0.15974 
 N                     4.22936  -0.56221   1.25228 
 H                     3.54332  -1.13116   1.73245 
 H                     4.12019   0.37108   1.72744 
 N                     4.9547    0.3916   -0.71467 
 H                     4.67754   0.58287  -1.66991 
 H                     4.93633   1.30155  -0.20142 
 C                    -3.63401  -0.44553  -0.08875 
 O                    -4.58652   0.25795   0.52483 
 O                    -3.78911  -1.58538  -0.4257 
 
                          Input orientation:                          
 ---------------------------------------------------------------------
 Center     Atomic      Atomic             Coordinates (Angstroms)
 Number     Number       Type             X           Y           Z
 ---------------------------------------------------------------------
      1          7           0       -2.449391    1.662106    0.312579
      2          1           0       -1.892601    1.661727    1.158668
      3          1           0       -2.080546    2.396181   -0.273303
      4          1           0       -4.177396    1.141286    0.662011
      5          6           0       -2.348291    0.354291   -0.351331
      6          1           0       -2.341210    0.525036   -1.432399
      7          6           0       -1.094454   -0.433998    0.018947
      8          1           0       -1.158799   -1.420651   -0.442292
      9          1           0       -1.094388   -0.600813    1.103594
     10          6           0        0.189472    0.269027   -0.401511
     11          1           0        0.226249    1.274775    0.033698
     12          1           0        0.202187    0.403801   -1.488111
     13          6           0        1.454987   -0.475381    0.010983
     14          1           0        1.500154   -1.448164   -0.487822
     15          1           0        1.387851   -0.690928    1.097108
     16          7           0        2.637813    0.252447   -0.370362
     17          1           0        2.663477    1.140380    0.184321
     18          6           0        3.911600   -0.453520   -0.159739
     19          7           0        4.229364   -0.562212    1.252282
     20          1           0        3.543317   -1.131161    1.732452
     21          1           0        4.120188    0.371081    1.727439
     22          7           0        4.954703    0.391604   -0.714669
     23          1           0        4.677541    0.582868   -1.669912
     24          1           0        4.936328    1.301549   -0.201421
     25          6           0       -3.634014   -0.445530   -0.088747
     26          8           0       -4.586522    0.257947    0.524834
     27          8           0       -3.789113   -1.585375   -0.425703
 ---------------------------------------------------------------------
                    Distance matrix (angstroms):
                    1          2          3          4          5
     1  N    0.000000
     2  H    1.012858   0.000000
     3  H    1.009044   1.620274   0.000000
     4  H    1.838303   2.395374   2.616554   0.000000
     5  C    1.470162   2.048692   2.060847   2.234244   0.000000
     6  H    2.085565   2.864777   2.216446   2.852700   1.094492
     7  C    2.513111   2.515565   3.011262   3.521304   1.526634
     8  H    3.426200   3.550013   3.930188   4.110345   2.138594
     9  H    2.753641   2.399847   3.442430   3.568591   2.145065
    10  C    3.068255   2.951068   3.113552   4.578368   2.539691
    11  H    2.717876   2.429982   2.583235   4.450246   2.761122
    12  H    3.443353   3.602215   3.264385   4.934334   2.792787
    13  C    4.461387   4.134097   4.563626   5.895862   3.909546
    14  H    5.090513   4.888061   5.257986   6.345230   4.251823
    15  H    4.569101   4.037343   4.841286   5.875227   4.141161
    16  N    5.322893   4.984842   5.183428   6.950029   4.987180
    17  H    5.141018   4.688177   4.928713   6.857531   5.101243
    18  C    6.720206   6.316741   6.636227   8.285562   6.314705
    19  N    7.101859   6.514071   7.134036   8.597903   6.832064
    20  H    6.762465   6.138294   6.934914   8.119068   6.423376
    21  H    6.843095   6.175994   6.822983   8.401086   6.794320
    22  N    7.582217   7.211669   7.328565   9.265663   7.312122
    23  H    7.475840   7.234056   7.135150   9.173854   7.152148
    24  H    7.412357   6.972363   7.102106   9.155936   7.347479
    25  C    2.450821   3.004845   3.243863   1.837631   1.536798
    26  O    2.565939   3.103152   3.389540   0.983102   2.405541
    27  O    3.589714   4.080522   4.335345   2.961176   2.417396
                    6          7          8          9         10
     6  H    0.000000
     7  C    2.140222   0.000000
     8  H    2.482762   1.091039   0.000000
     9  H    3.041934   1.097400   1.751013   0.000000
    10  C    2.744562   1.522989   2.162061   2.161078   0.000000
    11  H    3.050147   2.159717   3.067612   2.531124   1.096489
    12  H    2.546894   2.157408   2.504924   3.067131   1.095000
    13  C    4.182738   2.549789   2.816180   2.776481   1.525065
    14  H    4.420613   2.831490   2.659485   3.159471   2.161962
    15  H    4.667212   2.718507   3.063931   2.483883   2.145573
    16  N    5.098323   3.814785   4.149541   4.102429   2.448595
    17  H    5.295217   4.077752   4.643417   4.242448   2.687593
    18  C    6.455608   5.009280   5.169538   5.165038   3.799311
    19  N    7.180673   5.466314   5.713213   5.325968   4.443728
    20  H    6.883816   4.993101   5.188758   4.710100   4.214570
    21  H    7.194299   5.546133   5.982118   5.340933   4.471395
    22  N    7.332345   6.149155   6.382270   6.393940   4.777083
    23  H    7.023007   6.099360   6.291582   6.512189   4.674409
    24  H    7.421647   6.279412   6.679743   6.456902   4.861973
    25  C    2.102080   2.541869   2.683756   2.809891   3.902238
    26  O    2.990572   3.595726   3.937297   3.642449   4.865014
    27  O    2.750217   2.963877   2.635519   3.251101   4.389593
                   11         12         13         14         15
    11  H    0.000000
    12  H    1.753590   0.000000
    13  C    2.138541   2.142371   0.000000
    14  H    3.051100   2.472867   1.094145   0.000000
    15  H    2.518759   3.047554   1.109340   1.760120   0.000000
    16  N    2.650294   2.684128   1.440220   2.049425   2.146120
    17  H    2.445573   3.065538   2.025136   2.916446   2.411243
    18  C    4.075075   4.032284   2.462635   2.629073   2.829370
    19  N    4.569945   4.965993   3.040646   3.355810   2.848656
    20  H    4.435903   4.887871   2.784713   3.033912   2.289869
    21  H    4.341449   5.068685   3.281161   3.883505   2.998474
    22  N    4.868092   4.815057   3.677804   3.920474   4.144496
    23  H    4.816121   4.482623   3.785519   3.951989   4.483416
    24  H    4.716020   4.987345   3.914375   4.410242   4.271748
    25  C    4.228010   4.170854   5.090066   5.246353   5.165811
    26  O    4.943472   5.196629   6.107507   6.401868   6.076265
    27  O    4.951226   4.584322   5.378045   5.291411   5.469913
                   16         17         18         19         20
    16  N    0.000000
    17  H    1.047262   0.000000
    18  C    1.471491   2.053462   0.000000
    19  N    2.414472   2.547815   1.451410   0.000000
    20  H    2.675095   2.886300   2.043335   1.012387   0.000000
    21  H    2.571435   2.257220   2.070004   1.052962   1.609204
    22  N    2.346464   2.572657   1.452668   2.303210   3.209241
    23  H    2.441004   2.793824   1.985293   3.170377   3.974977
    24  H    2.532257   2.310979   2.032750   2.467115   3.405646
    25  C    6.316826   6.499852   7.545952   7.977762   7.436460
    26  O    7.279589   7.311438   8.555285   8.883788   8.335601
    27  O    6.684761   7.031201   7.787992   8.255814   7.656923
                   21         22         23         24         25
    21  H    0.000000
    22  N    2.580839   0.000000
    23  H    3.449274   1.012862   0.000000
    24  H    2.291802   1.044874   1.655276   0.000000
    25  C    8.005812   8.652088   8.522889   8.747328   0.000000
    26  O    8.790100   9.622329   9.526035   9.607353   1.333654
    27  O    8.427383   8.969184   8.827999   9.193365   1.198683
                   26         27
    26  O    0.000000
    27  O    2.221985   0.000000
 Stoichiometry    C6H15N4O2(1-)
 Framework group  C1[X(C6H15N4O2)]
 Deg. of freedom    75
 Full point group                 C1      NOp   1
 Largest Abelian subgroup         C1      NOp   1
 Largest concise Abelian subgroup C1      NOp   1
                         Standard orientation:                         
 ---------------------------------------------------------------------
 Center     Atomic      Atomic             Coordinates (Angstroms)
 Number     Number       Type             X           Y           Z
 ---------------------------------------------------------------------
      1          7           0       -2.449432    1.662596    0.309433
      2          1           0       -1.892559    1.663850    1.155467
      3          1           0       -2.080720    2.395616   -0.277852
      4          1           0       -4.177349    1.142249    0.660004
      5          6           0       -2.348262    0.353557   -0.352050
      6          1           0       -2.341304    0.522288   -1.433435
      7          6           0       -1.094307   -0.433912    0.019573
      8          1           0       -1.158596   -1.421429   -0.439821
      9          1           0       -1.094118   -0.598706    1.104529
     10          6           0        0.189505    0.268461   -0.402320
     11          1           0        0.226221    1.275022    0.031011
     12          1           0        0.202100    0.401212   -1.489170
     13          6           0        1.455137   -0.475047    0.011436
     14          1           0        1.500356   -1.448753   -0.485561
     15          1           0        1.388130   -0.688577    1.097967
     16          7           0        2.637851    0.252191   -0.371380
     17          1           0        2.663477    1.141159    0.181645
     18          6           0        3.911731   -0.453251   -0.159567
     19          7           0        4.229645   -0.559280    1.252622
     20          1           0        3.543703   -1.127404    1.733919
     21          1           0        4.120419    0.374885    1.726051
     22          7           0        4.954693    0.390946   -0.716173
     23          1           0        4.677417    0.580401   -1.671743
     24          1           0        4.936274    1.301843   -0.204619
     25          6           0       -3.633877   -0.445906   -0.087850
     26          8           0       -4.586397    0.258614    0.524513
     27          8           0       -3.788891   -1.586393   -0.422667
 ---------------------------------------------------------------------
 Rotational constants (GHZ):           2.7669751           0.2562052           0.2486655
 Standard basis: def2TZVP (5D, 7F)
 There are   522 symmetry adapted cartesian basis functions of A   symmetry.
 There are   462 symmetry adapted basis functions of A   symmetry.
   462 basis functions,   732 primitive gaussians,   522 cartesian basis functions
    48 alpha electrons       48 beta electrons
       nuclear repulsion energy       711.3601351853 Hartrees.
 NAtoms=   27 NActive=   27 NUniq=   27 SFac= 1.00D+00 NAtFMM=   60 NAOKFM=F Big=F
 Integral buffers will be    131072 words long.
 Raffenetti 2 integral format.
 Two-electron integral symmetry is turned on.
 Nuclear repulsion after empirical dispersion term =      711.3426232544 Hartrees.
 One-electron integrals computed using PRISM.
   1 Symmetry operations used in ECPInt.
 ECPInt:  NShTT=   18528 NPrTT=   54924 LenC2=   16268 LenP2D=   36015.
 LDataN:  DoStor=T MaxTD1= 6 Len=  172
 NBasis=   462 RedAO= T EigKep=  7.71D-05  NBF=   462
 NBsUse=   462 1.00D-06 EigRej= -1.00D+00 NBFU=   462
 ExpMin= 9.52D-02 ExpMax= 2.70D+04 ExpMxC= 9.22D+02 IAcc=4 IRadAn=    299974 AccDes= 0.00D+00
 Harris functional with IExCor= 4639 and IRadAn=  299974 diagonalized for initial guess.
 HarFok:  IExCor= 4639 AccDes= 0.00D+00 IRadAn=    299974 IDoV= 1 UseB2=F ITyADJ=14
 ICtDFT=  3500011 ScaDFX=  1.000000  1.000000  1.000000  1.000000
 FoFCou: FMM=F IPFlag=           0 FMFlag=      100000 FMFlg1=           0
         NFxFlg=           0 DoJE=T BraDBF=F KetDBF=T FulRan=T
         wScrn=  0.000000 ICntrl=       500 IOpCl=  0 I1Cent=   200000004 NGrid=           0
         NMat0=    1 NMatS0=      1 NMatT0=    0 NMatD0=    1 NMtDS0=    0 NMtDT0=    0
 Petite list used in FoFCou.
 Requested convergence on RMS density matrix=1.00D-08 within 128 cycles.
 Requested convergence on MAX density matrix=1.00D-06.
 Requested convergence on             energy=1.00D-06.
 No special actions if energy rises.
 Integral accuracy reduced to 1.0D-05 until final iterations.
 Initial convergence to 1.0D-05 achieved.  Increase integral accuracy.
 SCF Done:  E(RwB97XD) =  -607.132633888     A.U. after   17 cycles
            NFock= 17  Conv=0.22D-08     -V/T= 2.0045

 **********************************************************************

            Population analysis using the SCF Density.

 **********************************************************************

 Orbital symmetries:
       Occupied  (A) (A) (A) (A) (A) (A) (A) (A) (A) (A) (A) (A)
                 (A) (A) (A) (A) (A) (A) (A) (A) (A) (A) (A) (A)
                 (A) (A) (A) (A) (A) (A) (A) (A) (A) (A) (A) (A)
                 (A) (A) (A) (A) (A) (A) (A) (A) (A) (A) (A) (A)
       Virtual   (A) (A) (A) (A) (A) (A) (A) (A) (A) (A) (A) (A)
                 (A) (A) (A) (A) (A) (A) (A) (A) (A) (A) (A) (A)
                 (A) (A) (A) (A) (A) (A) (A) (A) (A) (A) (A) (A)
                 (A) (A) (A) (A) (A) (A) (A) (A) (A) (A) (A) (A)
                 (A) (A) (A) (A) (A) (A) (A) (A) (A) (A) (A) (A)
                 (A) (A) (A) (A) (A) (A) (A) (A) (A) (A) (A) (A)
                 (A) (A) (A) (A) (A) (A) (A) (A) (A) (A) (A) (A)
                 (A) (A) (A) (A) (A) (A) (A) (A) (A) (A) (A) (A)
                 (A) (A) (A) (A) (A) (A) (A) (A) (A) (A) (A) (A)
                 (A) (A) (A) (A) (A) (A) (A) (A) (A) (A) (A) (A)
                 (A) (A) (A) (A) (A) (A) (A) (A) (A) (A) (A) (A)
                 (A) (A) (A) (A) (A) (A) (A) (A) (A) (A) (A) (A)
                 (A) (A) (A) (A) (A) (A) (A) (A) (A) (A) (A) (A)
                 (A) (A) (A) (A) (A) (A) (A) (A) (A) (A) (A) (A)
                 (A) (A) (A) (A) (A) (A) (A) (A) (A) (A) (A) (A)
                 (A) (A) (A) (A) (A) (A) (A) (A) (A) (A) (A) (A)
                 (A) (A) (A) (A) (A) (A) (A) (A) (A) (A) (A) (A)
                 (A) (A) (A) (A) (A) (A) (A) (A) (A) (A) (A) (A)
                 (A) (A) (A) (A) (A) (A) (A) (A) (A) (A) (A) (A)
                 (A) (A) (A) (A) (A) (A) (A) (A) (A) (A) (A) (A)
                 (A) (A) (A) (A) (A) (A) (A) (A) (A) (A) (A) (A)
                 (A) (A) (A) (A) (A) (A) (A) (A) (A) (A) (A) (A)
                 (A) (A) (A) (A) (A) (A) (A) (A) (A) (A) (A) (A)
                 (A) (A) (A) (A) (A) (A) (A) (A) (A) (A) (A) (A)
                 (A) (A) (A) (A) (A) (A) (A) (A) (A) (A) (A) (A)
                 (A) (A) (A) (A) (A) (A) (A) (A) (A) (A) (A) (A)
                 (A) (A) (A) (A) (A) (A) (A) (A) (A) (A) (A) (A)
                 (A) (A) (A) (A) (A) (A) (A) (A) (A) (A) (A) (A)
                 (A) (A) (A) (A) (A) (A) (A) (A) (A) (A) (A) (A)
                 (A) (A) (A) (A) (A) (A) (A) (A) (A) (A) (A) (A)
                 (A) (A) (A) (A) (A) (A) (A) (A) (A) (A) (A) (A)
                 (A) (A) (A) (A) (A) (A) (A) (A) (A) (A) (A) (A)
                 (A) (A) (A) (A) (A) (A) (A) (A) (A) (A) (A) (A)
                 (A) (A) (A) (A) (A) (A) (A) (A) (A) (A) (A) (A)
                 (A) (A) (A) (A) (A) (A)
 The electronic state is 1-A.
 Alpha  occ. eigenvalues --  -19.20420 -19.14474 -14.37146 -14.23880 -14.22611
 Alpha  occ. eigenvalues --  -14.22116 -10.32612 -10.25466 -10.19389 -10.16785
 Alpha  occ. eigenvalues --  -10.15853 -10.10017  -1.12370  -1.03767  -0.94109
 Alpha  occ. eigenvalues --   -0.85521  -0.80062  -0.77096  -0.73960  -0.71243
 Alpha  occ. eigenvalues --   -0.62972  -0.60592  -0.56960  -0.54589  -0.51429
 Alpha  occ. eigenvalues --   -0.48814  -0.47918  -0.45821  -0.45278  -0.43384
 Alpha  occ. eigenvalues --   -0.41499  -0.40407  -0.39103  -0.37135  -0.36247
 Alpha  occ. eigenvalues --   -0.35195  -0.33665  -0.32673  -0.31887  -0.31202
 Alpha  occ. eigenvalues --   -0.30535  -0.28624  -0.28279  -0.26189  -0.18676
 Alpha  occ. eigenvalues --   -0.15492  -0.11872  -0.03610
 Alpha virt. eigenvalues --    0.15792   0.18122   0.20607   0.22639   0.23389
 Alpha virt. eigenvalues --    0.25084   0.25756   0.26597   0.27609   0.28244
 Alpha virt. eigenvalues --    0.30002   0.30919   0.32242   0.32742   0.33115
 Alpha virt. eigenvalues --    0.34977   0.35199   0.35452   0.36254   0.37526
 Alpha virt. eigenvalues --    0.37813   0.39304   0.40685   0.42177   0.43928
 Alpha virt. eigenvalues --    0.43991   0.44787   0.45634   0.46373   0.47423
 Alpha virt. eigenvalues --    0.47612   0.48619   0.49464   0.50842   0.51422
 Alpha virt. eigenvalues --    0.52613   0.53456   0.53827   0.54804   0.55454
 Alpha virt. eigenvalues --    0.56135   0.56687   0.57452   0.57950   0.59376
 Alpha virt. eigenvalues --    0.59615   0.60771   0.61429   0.61951   0.62429
 Alpha virt. eigenvalues --    0.62758   0.63673   0.63957   0.64804   0.65259
 Alpha virt. eigenvalues --    0.65703   0.66122   0.66896   0.67688   0.69280
 Alpha virt. eigenvalues --    0.69435   0.69996   0.70897   0.71863   0.72049
 Alpha virt. eigenvalues --    0.72093   0.73374   0.73772   0.74492   0.75419
 Alpha virt. eigenvalues --    0.77171   0.78075   0.78773   0.79373   0.80681
 Alpha virt. eigenvalues --    0.82207   0.82560   0.83635   0.84460   0.85985
 Alpha virt. eigenvalues --    0.86086   0.88807   0.90550   0.91096   0.92706
 Alpha virt. eigenvalues --    0.94803   0.96375   0.97977   0.99366   1.00695
 Alpha virt. eigenvalues --    1.02863   1.04156   1.06076   1.06506   1.08212
 Alpha virt. eigenvalues --    1.09161   1.10088   1.10193   1.12720   1.15326
 Alpha virt. eigenvalues --    1.16916   1.17645   1.18763   1.20997   1.22704
 Alpha virt. eigenvalues --    1.23939   1.26223   1.28248   1.29972   1.30955
 Alpha virt. eigenvalues --    1.33298   1.34159   1.36370   1.38095   1.40048
 Alpha virt. eigenvalues --    1.40950   1.43083   1.46307   1.47134   1.48649
 Alpha virt. eigenvalues --    1.49453   1.50449   1.52366   1.52913   1.54033
 Alpha virt. eigenvalues --    1.54938   1.55833   1.57188   1.58243   1.60327
 Alpha virt. eigenvalues --    1.61372   1.63525   1.64822   1.65336   1.67146
 Alpha virt. eigenvalues --    1.67680   1.70123   1.70908   1.72610   1.73652
 Alpha virt. eigenvalues --    1.73902   1.75735   1.77790   1.78317   1.80173
 Alpha virt. eigenvalues --    1.80354   1.81917   1.83044   1.85166   1.86605
 Alpha virt. eigenvalues --    1.88748   1.89464   1.92767   1.93738   1.95280
 Alpha virt. eigenvalues --    1.95679   1.96838   1.98629   1.99742   2.00983
 Alpha virt. eigenvalues --    2.01317   2.04340   2.05283   2.06053   2.07903
 Alpha virt. eigenvalues --    2.09183   2.09954   2.10680   2.11479   2.13297
 Alpha virt. eigenvalues --    2.15466   2.15943   2.16595   2.18457   2.20643
 Alpha virt. eigenvalues --    2.21375   2.22130   2.23099   2.23434   2.25035
 Alpha virt. eigenvalues --    2.26068   2.26661   2.27099   2.28639   2.29294
 Alpha virt. eigenvalues --    2.31732   2.32782   2.33219   2.36849   2.37626
 Alpha virt. eigenvalues --    2.40058   2.40582   2.43676   2.44339   2.45328
 Alpha virt. eigenvalues --    2.46271   2.48306   2.49203   2.51642   2.51939
 Alpha virt. eigenvalues --    2.54811   2.56363   2.58309   2.58726   2.59958
 Alpha virt. eigenvalues --    2.60832   2.62359   2.65028   2.65597   2.67558
 Alpha virt. eigenvalues --    2.68572   2.68924   2.71171   2.72524   2.74164
 Alpha virt. eigenvalues --    2.74906   2.76012   2.77259   2.79076   2.80853
 Alpha virt. eigenvalues --    2.81739   2.82941   2.83788   2.84336   2.85978
 Alpha virt. eigenvalues --    2.88690   2.89445   2.90242   2.90670   2.91304
 Alpha virt. eigenvalues --    2.94055   2.94835   2.95757   2.96539   2.97349
 Alpha virt. eigenvalues --    2.99555   3.03704   3.05067   3.06601   3.07881
 Alpha virt. eigenvalues --    3.09146   3.10235   3.12200   3.13403   3.14669
 Alpha virt. eigenvalues --    3.17124   3.18938   3.21699   3.22862   3.25044
 Alpha virt. eigenvalues --    3.25759   3.26428   3.28840   3.29185   3.30287
 Alpha virt. eigenvalues --    3.31444   3.35080   3.38660   3.39109   3.40522
 Alpha virt. eigenvalues --    3.42369   3.42979   3.44335   3.45180   3.46312
 Alpha virt. eigenvalues --    3.46404   3.48839   3.49876   3.50884   3.51895
 Alpha virt. eigenvalues --    3.52534   3.53595   3.53778   3.56720   3.58557
 Alpha virt. eigenvalues --    3.59968   3.62155   3.63938   3.64816   3.65945
 Alpha virt. eigenvalues --    3.68061   3.69146   3.69549   3.70924   3.73991
 Alpha virt. eigenvalues --    3.75412   3.76462   3.77784   3.81375   3.82021
 Alpha virt. eigenvalues --    3.83562   3.85754   3.86619   3.88504   3.92538
 Alpha virt. eigenvalues --    3.93822   3.95141   3.99585   4.04126   4.04725
 Alpha virt. eigenvalues --    4.05897   4.07984   4.10948   4.12605   4.13966
 Alpha virt. eigenvalues --    4.14438   4.17927   4.20983   4.21016   4.22151
 Alpha virt. eigenvalues --    4.26269   4.31402   4.32643   4.36642   4.37975
 Alpha virt. eigenvalues --    4.40535   4.43794   4.48651   4.51190   4.53662
 Alpha virt. eigenvalues --    4.54361   4.56313   4.58736   4.59380   4.61050
 Alpha virt. eigenvalues --    4.64112   4.66152   4.70287   4.74348   4.74827
 Alpha virt. eigenvalues --    4.77453   4.81558   4.84622   4.88396   4.90026
 Alpha virt. eigenvalues --    4.91590   4.93528   4.97116   4.98571   4.99695
 Alpha virt. eigenvalues --    5.01132   5.02003   5.07503   5.09351   5.10070
 Alpha virt. eigenvalues --    5.11805   5.12776   5.16586   5.19236   5.20880
 Alpha virt. eigenvalues --    5.25035   5.26063   5.26641   5.30088   5.30869
 Alpha virt. eigenvalues --    5.34008   5.34862   5.35623   5.38085   5.38635
 Alpha virt. eigenvalues --    5.40703   5.42116   5.46458   5.46650   5.48919
 Alpha virt. eigenvalues --    5.49635   5.52978   5.57157   5.59743   5.61002
 Alpha virt. eigenvalues --    5.63848   5.68264   5.69354   5.72300   5.73114
 Alpha virt. eigenvalues --    5.75176   5.76395   5.80452   5.85963   5.87757
 Alpha virt. eigenvalues --    5.92255   5.94685   5.97413   6.01195   6.10710
 Alpha virt. eigenvalues --    6.16555   6.20391   6.25860   6.35952   6.36443
 Alpha virt. eigenvalues --    6.53631   6.58952   6.63521   6.67849   6.89957
 Alpha virt. eigenvalues --    6.90134   6.97030   7.00756   7.19117   7.30569
 Alpha virt. eigenvalues --    7.34111   7.46543  22.62016  22.71079  22.73367
 Alpha virt. eigenvalues --   22.76962  22.80176  23.51683  32.20082  32.22246
 Alpha virt. eigenvalues --   32.30923  32.74977  44.02112  44.08743
          Condensed to atoms (all electrons):
               1          2          3          4          5          6
     1  N    6.771164   0.368694   0.372489   0.056222   0.142752  -0.044786
     2  H    0.368694   0.441815  -0.028764  -0.001654  -0.033595   0.005964
     3  H    0.372489  -0.028764   0.442039  -0.000773  -0.019345  -0.010993
     4  H    0.056222  -0.001654  -0.000773   0.358835  -0.017517   0.001364
     5  C    0.142752  -0.033595  -0.019345  -0.017517   5.404364   0.404224
     6  H   -0.044786   0.005964  -0.010993   0.001364   0.404224   0.578484
     7  C   -0.050543  -0.005884  -0.002928   0.003811   0.223742  -0.035712
     8  H    0.008510   0.000339  -0.000453  -0.000235  -0.044725  -0.003119
     9  H   -0.010420   0.004959  -0.000163  -0.000099  -0.025071   0.008553
    10  C    0.010175  -0.000182   0.001700  -0.000246  -0.041728  -0.003585
    11  H    0.017675   0.003253  -0.000415   0.000006  -0.023998  -0.000814
    12  H   -0.001747   0.000353   0.000412  -0.000046   0.006045   0.003025
    13  C    0.001891  -0.000504   0.000175   0.000005  -0.014404   0.000734
    14  H   -0.000106   0.000051  -0.000006   0.000000   0.001674  -0.000014
    15  H    0.000066  -0.000001   0.000048  -0.000001   0.002235  -0.000247
    16  N    0.000117   0.000006   0.000008  -0.000000  -0.000978  -0.000071
    17  H   -0.000184   0.000110   0.000004  -0.000000   0.001143  -0.000057
    18  C    0.000017  -0.000009   0.000000  -0.000000  -0.000161   0.000004
    19  N   -0.000000   0.000002   0.000000   0.000000   0.000025  -0.000001
    20  H   -0.000000   0.000000  -0.000000   0.000000   0.000005   0.000000
    21  H   -0.000001   0.000005   0.000000  -0.000000   0.000028  -0.000001
    22  N   -0.000000   0.000000   0.000000  -0.000000  -0.000002  -0.000000
    23  H   -0.000000  -0.000000   0.000000   0.000000   0.000001  -0.000000
    24  H   -0.000000   0.000000   0.000000  -0.000000   0.000007  -0.000000
    25  C   -0.006151  -0.000622   0.000445  -0.034419   0.233517  -0.014150
    26  O   -0.045386   0.000868   0.000307   0.288906  -0.123787   0.001698
    27  O    0.005319  -0.000022  -0.000214   0.005001  -0.131376   0.002427
               7          8          9         10         11         12
     1  N   -0.050543   0.008510  -0.010420   0.010175   0.017675  -0.001747
     2  H   -0.005884   0.000339   0.004959  -0.000182   0.003253   0.000353
     3  H   -0.002928  -0.000453  -0.000163   0.001700  -0.000415   0.000412
     4  H    0.003811  -0.000235  -0.000099  -0.000246   0.000006  -0.000046
     5  C    0.223742  -0.044725  -0.025071  -0.041728  -0.023998   0.006045
     6  H   -0.035712  -0.003119   0.008553  -0.003585  -0.000814   0.003025
     7  C    5.320735   0.396087   0.389563   0.142441  -0.057324  -0.019900
     8  H    0.396087   0.532337  -0.016350  -0.017291   0.007850  -0.006896
     9  H    0.389563  -0.016350   0.599666  -0.058253  -0.005969   0.008353
    10  C    0.142441  -0.017291  -0.058253   5.297869   0.411735   0.355308
    11  H   -0.057324   0.007850  -0.005969   0.411735   0.667136  -0.042456
    12  H   -0.019900  -0.006896   0.008353   0.355308  -0.042456   0.625051
    13  C   -0.058632   0.005273   0.006376   0.148990  -0.032546  -0.025592
    14  H   -0.027650   0.003444  -0.001386   0.044474   0.012346  -0.013923
    15  H    0.050248  -0.002759   0.004737  -0.096787  -0.014823   0.018691
    16  N    0.011301   0.000128   0.000223  -0.097808  -0.005432   0.018730
    17  H   -0.002413  -0.000153  -0.000384   0.038001   0.019323  -0.000357
    18  C   -0.003310  -0.000089   0.000182  -0.006143  -0.001839  -0.000125
    19  N    0.001607  -0.000005  -0.000143   0.006426  -0.000281   0.000200
    20  H   -0.000145   0.000014  -0.000042   0.001401   0.000046  -0.000132
    21  H    0.000059  -0.000015  -0.000056   0.005512   0.000997   0.000089
    22  N   -0.000114   0.000000  -0.000001  -0.001167  -0.000034  -0.000128
    23  H    0.000075  -0.000002   0.000001  -0.000343  -0.000072   0.000375
    24  H   -0.000000  -0.000003  -0.000001   0.002424   0.000317   0.000224
    25  C   -0.018206  -0.002268  -0.002209  -0.004098  -0.000424   0.000691
    26  O   -0.001462   0.000947   0.002267  -0.000662  -0.000009   0.000012
    27  O    0.011578   0.012347   0.000309  -0.001351  -0.000079   0.000025
              13         14         15         16         17         18
     1  N    0.001891  -0.000106   0.000066   0.000117  -0.000184   0.000017
     2  H   -0.000504   0.000051  -0.000001   0.000006   0.000110  -0.000009
     3  H    0.000175  -0.000006   0.000048   0.000008   0.000004   0.000000
     4  H    0.000005   0.000000  -0.000001  -0.000000  -0.000000  -0.000000
     5  C   -0.014404   0.001674   0.002235  -0.000978   0.001143  -0.000161
     6  H    0.000734  -0.000014  -0.000247  -0.000071  -0.000057   0.000004
     7  C   -0.058632  -0.027650   0.050248   0.011301  -0.002413  -0.003310
     8  H    0.005273   0.003444  -0.002759   0.000128  -0.000153  -0.000089
     9  H    0.006376  -0.001386   0.004737   0.000223  -0.000384   0.000182
    10  C    0.148990   0.044474  -0.096787  -0.097808   0.038001  -0.006143
    11  H   -0.032546   0.012346  -0.014823  -0.005432   0.019323  -0.001839
    12  H   -0.025592  -0.013923   0.018691   0.018730  -0.000357  -0.000125
    13  C    5.203860   0.282095   0.344050   0.438192  -0.165835  -0.069392
    14  H    0.282095   0.677719  -0.069637  -0.055871   0.043812   0.035985
    15  H    0.344050  -0.069637   0.867976  -0.103665  -0.005536  -0.035287
    16  N    0.438192  -0.055871  -0.103665   6.822429   0.147143   0.514079
    17  H   -0.165835   0.043812  -0.005536   0.147143   1.006365  -0.275467
    18  C   -0.069392   0.035985  -0.035287   0.514079  -0.275467   5.698893
    19  N    0.015980  -0.002822   0.040968  -0.157839  -0.017104   0.351953
    20  H    0.006064   0.000590  -0.002707   0.007408  -0.001373  -0.076046
    21  H   -0.016231   0.008430   0.007029  -0.044442   0.127193  -0.269229
    22  N    0.006662   0.003223  -0.000279  -0.178226   0.025910   0.407394
    23  H    0.000807  -0.000497   0.000550   0.011855   0.001950  -0.073663
    24  H   -0.007894   0.002712   0.001203  -0.045619   0.102798  -0.245938
    25  C   -0.000310  -0.000137   0.000419  -0.000003   0.000008  -0.000003
    26  O    0.000004  -0.000001  -0.000001  -0.000000  -0.000000   0.000000
    27  O    0.000197  -0.000029  -0.000004  -0.000000   0.000000   0.000000
              19         20         21         22         23         24
     1  N   -0.000000  -0.000000  -0.000001  -0.000000  -0.000000  -0.000000
     2  H    0.000002   0.000000   0.000005   0.000000  -0.000000   0.000000
     3  H    0.000000  -0.000000   0.000000   0.000000   0.000000   0.000000
     4  H    0.000000   0.000000  -0.000000  -0.000000   0.000000  -0.000000
     5  C    0.000025   0.000005   0.000028  -0.000002   0.000001   0.000007
     6  H   -0.000001   0.000000  -0.000001  -0.000000  -0.000000  -0.000000
     7  C    0.001607  -0.000145   0.000059  -0.000114   0.000075  -0.000000
     8  H   -0.000005   0.000014  -0.000015   0.000000  -0.000002  -0.000003
     9  H   -0.000143  -0.000042  -0.000056  -0.000001   0.000001  -0.000001
    10  C    0.006426   0.001401   0.005512  -0.001167  -0.000343   0.002424
    11  H   -0.000281   0.000046   0.000997  -0.000034  -0.000072   0.000317
    12  H    0.000200  -0.000132   0.000089  -0.000128   0.000375   0.000224
    13  C    0.015980   0.006064  -0.016231   0.006662   0.000807  -0.007894
    14  H   -0.002822   0.000590   0.008430   0.003223  -0.000497   0.002712
    15  H    0.040968  -0.002707   0.007029  -0.000279   0.000550   0.001203
    16  N   -0.157839   0.007408  -0.044442  -0.178226   0.011855  -0.045619
    17  H   -0.017104  -0.001373   0.127193   0.025910   0.001950   0.102798
    18  C    0.351953  -0.076046  -0.269229   0.407394  -0.073663  -0.245938
    19  N    6.736933   0.392218   0.232739  -0.092687   0.012738  -0.026088
    20  H    0.392218   0.556973  -0.061393   0.010146  -0.001460  -0.002144
    21  H    0.232739  -0.061393   0.916390  -0.008811   0.000004   0.093838
    22  N   -0.092687   0.010146  -0.008811   6.692917   0.367183   0.275921
    23  H    0.012738  -0.001460   0.000004   0.367183   0.551526  -0.035803
    24  H   -0.026088  -0.002144   0.093838   0.275921  -0.035803   0.838210
    25  C    0.000000  -0.000000   0.000000  -0.000000   0.000000   0.000000
    26  O   -0.000000  -0.000000   0.000000  -0.000000  -0.000000   0.000000
    27  O    0.000000  -0.000000   0.000000   0.000000   0.000000   0.000000
              25         26         27
     1  N   -0.006151  -0.045386   0.005319
     2  H   -0.000622   0.000868  -0.000022
     3  H    0.000445   0.000307  -0.000214
     4  H   -0.034419   0.288906   0.005001
     5  C    0.233517  -0.123787  -0.131376
     6  H   -0.014150   0.001698   0.002427
     7  C   -0.018206  -0.001462   0.011578
     8  H   -0.002268   0.000947   0.012347
     9  H   -0.002209   0.002267   0.000309
    10  C   -0.004098  -0.000662  -0.001351
    11  H   -0.000424  -0.000009  -0.000079
    12  H    0.000691   0.000012   0.000025
    13  C   -0.000310   0.000004   0.000197
    14  H   -0.000137  -0.000001  -0.000029
    15  H    0.000419  -0.000001  -0.000004
    16  N   -0.000003  -0.000000  -0.000000
    17  H    0.000008  -0.000000   0.000000
    18  C   -0.000003   0.000000   0.000000
    19  N    0.000000  -0.000000   0.000000
    20  H   -0.000000  -0.000000  -0.000000
    21  H    0.000000   0.000000   0.000000
    22  N   -0.000000  -0.000000   0.000000
    23  H    0.000000  -0.000000   0.000000
    24  H    0.000000   0.000000   0.000000
    25  C    4.436025   0.392305   0.700652
    26  O    0.392305   7.953861  -0.085405
    27  O    0.700652  -0.085405   7.840553
 Mulliken charges:
               1
     1  N   -0.595765
     2  H    0.244817
     3  H    0.246426
     4  H    0.340839
     5  C    0.056924
     6  H    0.107075
     7  C   -0.267024
     8  H    0.127086
     9  H    0.095358
    10  C   -0.136814
    11  H    0.045835
    12  H    0.073717
    13  C   -0.070016
    14  H    0.055525
    15  H   -0.006484
    16  N   -0.281665
    17  H   -0.044897
    18  C    0.048193
    19  N   -0.494822
    20  H    0.170575
    21  H    0.007865
    22  N   -0.507907
    23  H    0.164773
    24  H    0.045835
    25  C    0.318939
    26  O   -0.384463
    27  O   -0.359926
 Sum of Mulliken charges =  -1.00000
 Mulliken charges with hydrogens summed into heavy atoms:
               1
     1  N   -0.104522
     5  C    0.163999
     7  C   -0.044579
    10  C   -0.017262
    13  C   -0.020974
    16  N   -0.326562
    18  C    0.048193
    19  N   -0.316382
    22  N   -0.297299
    25  C    0.318939
    26  O   -0.043624
    27  O   -0.359926
 Electronic spatial extent (au):  <R**2>=           4290.7824
 Charge=             -1.0000 electrons
 Dipole moment (field-independent basis, Debye):
    X=            -14.1002    Y=              5.7912    Z=              0.8484  Tot=             15.2667
 Quadrupole moment (field-independent basis, Debye-Ang):
   XX=           -197.7455   YY=            -83.5385   ZZ=            -78.5150
   XY=             -2.8931   XZ=              0.4235   YZ=             -1.5602
 Traceless Quadrupole moment (field-independent basis, Debye-Ang):
   XX=            -77.8125   YY=             36.3945   ZZ=             41.4180
   XY=             -2.8931   XZ=              0.4235   YZ=             -1.5602
 Octapole moment (field-independent basis, Debye-Ang**2):
  XXX=           -355.6323  YYY=             21.2264  ZZZ=             -3.1514  XYY=            -20.0127
  XXY=             93.8910  XXZ=             -8.7702  XZZ=            -33.5505  YZZ=              4.8894
  YYZ=              3.6625  XYZ=              4.4337
 Hexadecapole moment (field-independent basis, Debye-Ang**3):
 XXXX=          -8078.6245 YYYY=           -422.2872 ZZZZ=           -266.7745 XXXY=             51.5825
 XXXZ=            -26.7723 YYYX=            -24.9966 YYYZ=            -10.1468 ZZZX=            -33.9127
 ZZZY=             -0.9096 XXYY=          -1043.4296 XXZZ=           -947.3643 YYZZ=           -114.0651
 XXYZ=            -11.8315 YYXZ=             -7.1211 ZZXY=              2.9879
 N-N= 7.113426232544D+02 E-N=-2.854486263898D+03  KE= 6.044156336613D+02
 Unable to Open any file for archive entry.
 1\1\GINC-WATER\SP\RwB97XD\def2TZVP\C6H15N4O2(1-)\DAYALYZ\10-Jun-2025\0
 \\# wB97xD/Def2TZVP SCF(Tight) Int(Grid=299974)\\Displacement_-0.05\\-
 1,1\N,0,-2.449391,1.662106,0.312579\H,0,-1.892601,1.661727,1.158668\H,
 0,-2.080546,2.396181,-0.273303\H,0,-4.177396,1.141286,0.662011\C,0,-2.
 348291,0.354291,-0.351331\H,0,-2.34121,0.525036,-1.432399\C,0,-1.09445
 4,-0.433998,0.018947\H,0,-1.158799,-1.420651,-0.442292\H,0,-1.094388,-
 0.600813,1.103594\C,0,0.189472,0.269027,-0.401511\H,0,0.226249,1.27477
 5,0.033698\H,0,0.202187,0.403801,-1.488111\C,0,1.454987,-0.475381,0.01
 0983\H,0,1.500154,-1.448164,-0.487822\H,0,1.387851,-0.690928,1.097108\
 N,0,2.637813,0.252447,-0.370362\H,0,2.663477,1.14038,0.184321\C,0,3.91
 16,-0.45352,-0.159739\N,0,4.229364,-0.562212,1.252282\H,0,3.543317,-1.
 131161,1.732452\H,0,4.120188,0.371081,1.727439\N,0,4.954703,0.391604,-
 0.714669\H,0,4.677541,0.582868,-1.669912\H,0,4.936328,1.301549,-0.2014
 21\C,0,-3.634014,-0.44553,-0.088747\O,0,-4.586522,0.257947,0.524834\O,
 0,-3.789113,-1.585375,-0.425703\\Version=ES64L-G16RevC.01\State=1-A\HF
 =-607.1326339\RMSD=2.242e-09\Dipole=-5.5472292,2.2783877,0.3374937\Qua
 drupole=-57.8522202,27.0632185,30.7890017,-2.1426445,0.3020345,-1.1671
 74\PG=C01 [X(C6H15N4O2)]\\@
 The archive entry for this job was punched.


 THERE'S NOTHING WRONG WITH FOLLOWING A TRAIN OF THOUGHT...
 AS LONG AS IT ULTIMATELY PULLS INTO THE STATION.
 Job cpu time:       0 days  0 hours 47 minutes 40.0 seconds.
 Elapsed time:       0 days  0 hours 47 minutes 46.1 seconds.
 File lengths (MBytes):  RWF=    118 Int=      0 D2E=      0 Chk=     13 Scr=      1
 Normal termination of Gaussian 16 at Tue Jun 10 17:07:22 2025.
