 Entering Gaussian System, Link 0=g16
 Initial command:
 /opt/gaussian/g16/l1.exe "/scratch/Gau-4078150.inp" -scrdir="/scratch/"
 Entering Link 1 = /opt/gaussian/g16/l1.exe PID=   4078151.
  
 Copyright (c) 1988-2019, Gaussian, Inc.  All Rights Reserved.
  
 This is part of the Gaussian(R) 16 program.  It is based on
 the Gaussian(R) 09 system (copyright 2009, Gaussian, Inc.),
 the Gaussian(R) 03 system (copyright 2003, Gaussian, Inc.),
 the Gaussian(R) 98 system (copyright 1998, Gaussian, Inc.),
 the Gaussian(R) 94 system (copyright 1995, Gaussian, Inc.),
 the Gaussian 92(TM) system (copyright 1992, Gaussian, Inc.),
 the Gaussian 90(TM) system (copyright 1990, Gaussian, Inc.),
 the Gaussian 88(TM) system (copyright 1988, Gaussian, Inc.),
 the Gaussian 86(TM) system (copyright 1986, Carnegie Mellon
 University), and the Gaussian 82(TM) system (copyright 1983,
 Carnegie Mellon University). Gaussian is a federally registered
 trademark of Gaussian, Inc.
  
 This software contains proprietary and confidential information,
 including trade secrets, belonging to Gaussian, Inc.
  
 This software is provided under written license and may be
 used, copied, transmitted, or stored only in accord with that
 written license.
  
 The following legend is applicable only to US Government
 contracts under FAR:
  
                    RESTRICTED RIGHTS LEGEND
  
 Use, reproduction and disclosure by the US Government is
 subject to restrictions as set forth in subparagraphs (a)
 and (c) of the Commercial Computer Software - Restricted
 Rights clause in FAR 52.227-19.
  
 Gaussian, Inc.
 340 Quinnipiac St., Bldg. 40, Wallingford CT 06492
  
  
 ---------------------------------------------------------------
 Warning -- This program may not be used in any manner that
 competes with the business of Gaussian, Inc. or will provide
 assistance to any competitor of Gaussian, Inc.  The licensee
 of this program is prohibited from giving any competitor of
 Gaussian, Inc. access to this program.  By using this program,
 the user acknowledges that Gaussian, Inc. is engaged in the
 business of creating and licensing software in the field of
 computational chemistry and represents and warrants to the
 licensee that it is not a competitor of Gaussian, Inc. and that
 it will not use this program in any manner prohibited above.
 ---------------------------------------------------------------
  

 Cite this work as:
 Gaussian 16, Revision C.01,
 M. J. Frisch, G. W. Trucks, H. B. Schlegel, G. E. Scuseria, 
 M. A. Robb, J. R. Cheeseman, G. Scalmani, V. Barone, 
 G. A. Petersson, H. Nakatsuji, X. Li, M. Caricato, A. V. Marenich, 
 J. Bloino, B. G. Janesko, R. Gomperts, B. Mennucci, H. P. Hratchian, 
 J. V. Ortiz, A. F. Izmaylov, J. L. Sonnenberg, D. Williams-Young, 
 F. Ding, F. Lipparini, F. Egidi, J. Goings, B. Peng, A. Petrone, 
 T. Henderson, D. Ranasinghe, V. G. Zakrzewski, J. Gao, N. Rega, 
 G. Zheng, W. Liang, M. Hada, M. Ehara, K. Toyota, R. Fukuda, 
 J. Hasegawa, M. Ishida, T. Nakajima, Y. Honda, O. Kitao, H. Nakai, 
 T. Vreven, K. Throssell, J. A. Montgomery, Jr., J. E. Peralta, 
 F. Ogliaro, M. J. Bearpark, J. J. Heyd, E. N. Brothers, K. N. Kudin, 
 V. N. Staroverov, T. A. Keith, R. Kobayashi, J. Normand, 
 K. Raghavachari, A. P. Rendell, J. C. Burant, S. S. Iyengar, 
 J. Tomasi, M. Cossi, J. M. Millam, M. Klene, C. Adamo, R. Cammi, 
 J. W. Ochterski, R. L. Martin, K. Morokuma, O. Farkas, 
 J. B. Foresman, and D. J. Fox, Gaussian, Inc., Wallingford CT, 2019.
 
 ******************************************
 Gaussian 16:  ES64L-G16RevC.01  3-Jul-2019
                10-Jun-2025 
 ******************************************
 ---------------------------------------------
 # wB97xD/Def2TZVP SCF(Tight) Int(Grid=299974)
 ---------------------------------------------
 1/38=1,172=1/1;
 2/12=2,17=6,18=5,40=1/2;
 3/5=44,7=101,11=2,25=1,30=1,74=-58,75=299974/1,2,3;
 4//1;
 5/5=2,32=2,38=5/2;
 6/7=2,8=2,9=2,10=2,28=1/1;
 99/5=1,9=1/99;
 ------------------
 Displacement_-0.03
 ------------------
 Symbolic Z-matrix:
 Charge = -1 Multiplicity = 1
 N                    -2.44939   1.66211   0.31258 
 H                    -1.8926    1.66173   1.15867 
 H                    -2.08055   2.39618  -0.2733 
 H                    -4.1774    1.14129   0.66201 
 C                    -2.34829   0.35429  -0.35133 
 H                    -2.34121   0.52504  -1.4324 
 C                    -1.09445  -0.434     0.01895 
 H                    -1.1588   -1.42065  -0.44229 
 H                    -1.09439  -0.60081   1.10359 
 C                     0.18947   0.26903  -0.40151 
 H                     0.22625   1.27477   0.0337 
 H                     0.20219   0.4038   -1.48811 
 C                     1.45499  -0.47538   0.01098 
 H                     1.50015  -1.44836  -0.48762 
 H                     1.38765  -0.69113   1.09711 
 N                     2.63781   0.25245  -0.37036 
 H                     2.66348   1.14038   0.18452 
 C                     3.9114   -0.45352  -0.15954 
 N                     4.22916  -0.56201   1.25328 
 H                     3.54412  -1.13836   1.72505 
 H                     4.12519   0.37508   1.71864 
 N                     4.9545    0.3908   -0.71427 
 H                     4.67914   0.59187  -1.66811 
 H                     4.93693   1.30655  -0.20942 
 C                    -3.63401  -0.44553  -0.08875 
 O                    -4.58652   0.25795   0.52483 
 O                    -3.78911  -1.58538  -0.4257 
 
                          Input orientation:                          
 ---------------------------------------------------------------------
 Center     Atomic      Atomic             Coordinates (Angstroms)
 Number     Number       Type             X           Y           Z
 ---------------------------------------------------------------------
      1          7           0       -2.449391    1.662106    0.312579
      2          1           0       -1.892601    1.661727    1.158668
      3          1           0       -2.080546    2.396181   -0.273303
      4          1           0       -4.177396    1.141286    0.662011
      5          6           0       -2.348291    0.354291   -0.351331
      6          1           0       -2.341210    0.525036   -1.432399
      7          6           0       -1.094454   -0.433998    0.018947
      8          1           0       -1.158799   -1.420651   -0.442292
      9          1           0       -1.094388   -0.600813    1.103594
     10          6           0        0.189472    0.269027   -0.401511
     11          1           0        0.226249    1.274775    0.033698
     12          1           0        0.202187    0.403801   -1.488111
     13          6           0        1.454987   -0.475381    0.010983
     14          1           0        1.500154   -1.448364   -0.487622
     15          1           0        1.387651   -0.691128    1.097108
     16          7           0        2.637813    0.252447   -0.370362
     17          1           0        2.663477    1.140380    0.184521
     18          6           0        3.911400   -0.453520   -0.159539
     19          7           0        4.229164   -0.562012    1.253282
     20          1           0        3.544117   -1.138361    1.725052
     21          1           0        4.125188    0.375081    1.718639
     22          7           0        4.954503    0.390804   -0.714269
     23          1           0        4.679141    0.591868   -1.668112
     24          1           0        4.936928    1.306549   -0.209421
     25          6           0       -3.634014   -0.445530   -0.088747
     26          8           0       -4.586522    0.257947    0.524834
     27          8           0       -3.789113   -1.585375   -0.425703
 ---------------------------------------------------------------------
                    Distance matrix (angstroms):
                    1          2          3          4          5
     1  N    0.000000
     2  H    1.012858   0.000000
     3  H    1.009044   1.620274   0.000000
     4  H    1.838303   2.395374   2.616554   0.000000
     5  C    1.470162   2.048692   2.060847   2.234244   0.000000
     6  H    2.085565   2.864777   2.216446   2.852700   1.094492
     7  C    2.513111   2.515565   3.011262   3.521304   1.526634
     8  H    3.426200   3.550013   3.930188   4.110345   2.138594
     9  H    2.753641   2.399847   3.442430   3.568591   2.145065
    10  C    3.068255   2.951068   3.113552   4.578368   2.539691
    11  H    2.717876   2.429982   2.583235   4.450246   2.761122
    12  H    3.443353   3.602215   3.264385   4.934334   2.792787
    13  C    4.461387   4.134097   4.563626   5.895862   3.909546
    14  H    5.090604   4.888121   5.258124   6.345275   4.251902
    15  H    4.569036   4.037297   4.841270   5.875100   4.141031
    16  N    5.322893   4.984842   5.183428   6.950029   4.987180
    17  H    5.141013   4.688135   4.928731   6.857517   5.101264
    18  C    6.720002   6.316515   6.636050   8.285347   6.314513
    19  N    7.101741   6.513829   7.133990   8.597737   6.832079
    20  H    6.764602   6.141595   6.937092   8.120875   6.423383
    21  H    6.845329   6.179224   6.823768   8.404548   6.796406
    22  N    7.582102   7.211517   7.328568   9.265471   7.311898
    23  H    7.475595   7.233469   7.134032   9.174398   7.153681
    24  H    7.413273   6.974259   7.101853   9.157380   7.348561
    25  C    2.450821   3.004845   3.243863   1.837631   1.536798
    26  O    2.565939   3.103152   3.389540   0.983102   2.405541
    27  O    3.589714   4.080522   4.335345   2.961176   2.417396
                    6          7          8          9         10
     6  H    0.000000
     7  C    2.140222   0.000000
     8  H    2.482762   1.091039   0.000000
     9  H    3.041934   1.097400   1.751013   0.000000
    10  C    2.744562   1.522989   2.162061   2.161078   0.000000
    11  H    3.050147   2.159717   3.067612   2.531124   1.096489
    12  H    2.546894   2.157408   2.504924   3.067131   1.095000
    13  C    4.182738   2.549789   2.816180   2.776481   1.525065
    14  H    4.420745   2.831526   2.659484   3.159424   2.162113
    15  H    4.667105   2.718344   3.063717   2.483690   2.145551
    16  N    5.098323   3.814785   4.149541   4.102429   2.448595
    17  H    5.295278   4.077760   4.643444   4.242405   2.687637
    18  C    6.455453   5.009073   5.169353   5.164796   3.799128
    19  N    7.180834   5.466341   5.713351   5.325797   4.443881
    20  H    6.882838   4.992320   5.185989   4.710721   4.213865
    21  H    7.194847   5.548714   5.984546   5.345524   4.471705
    22  N    7.332200   6.148804   6.381834   6.393513   4.776837
    23  H    7.024625   6.101882   6.295587   6.514482   4.676070
    24  H    7.421437   6.281658   6.682046   6.460558   4.863300
    25  C    2.102080   2.541869   2.683756   2.809891   3.902238
    26  O    2.990572   3.595726   3.937297   3.642449   4.865014
    27  O    2.750217   2.963877   2.635519   3.251101   4.389593
                   11         12         13         14         15
    11  H    0.000000
    12  H    1.753590   0.000000
    13  C    2.138541   2.142371   0.000000
    14  H    3.051245   2.473098   1.094232   0.000000
    15  H    2.518823   3.047548   1.109391   1.759952   0.000000
    16  N    2.650294   2.684128   1.440220   2.049579   2.146324
    17  H    2.445586   3.065648   2.025154   2.916623   2.411425
    18  C    4.074884   4.032166   2.462422   2.628966   2.829298
    19  N    4.569956   4.966344   3.040867   3.356168   2.848729
    20  H    4.437584   4.885814   2.782452   3.028170   2.290126
    21  H    4.341682   5.066952   3.281668   3.883728   3.002867
    22  N    4.867982   4.814926   3.677347   3.920004   4.144164
    23  H    4.815679   4.484516   3.788608   3.957532   4.486249
    24  H    4.717056   4.986760   3.917622   4.413429   4.277277
    25  C    4.228010   4.170854   5.090066   5.246376   5.165626
    26  O    4.943472   5.196629   6.107507   6.401889   6.076099
    27  O    4.951226   4.584322   5.378045   5.291404   5.469691
                   16         17         18         19         20
    16  N    0.000000
    17  H    1.047368   0.000000
    18  C    1.471346   2.053340   0.000000
    19  N    2.414945   2.547894   1.452173   0.000000
    20  H    2.673293   2.888152   2.038526   1.011946   0.000000
    21  H    2.567343   2.252954   2.063937   1.051433   1.621170
    22  N    2.346160   2.572642   1.452127   2.303309   3.205904
    23  H    2.442618   2.792135   1.989486   3.173084   3.974360
    24  H    2.534356   2.313305   2.037655   2.476277   3.414629
    25  C    6.316826   6.499860   7.545750   7.977730   7.436091
    26  O    7.279589   7.311428   8.555070   8.883653   8.336515
    27  O    6.684761   7.031218   7.787801   8.255848   7.655183
                   21         22         23         24         25
    21  H    0.000000
    22  N    2.570419   0.000000
    23  H    3.438596   1.012950   0.000000
    24  H    2.289972   1.045834   1.644689   0.000000
    25  C    8.009074   8.651783   8.525206   8.749022   0.000000
    26  O    8.793906   9.622068   9.527488   9.609100   1.333654
    27  O    8.430762   8.968800   8.831494   9.195314   1.198683
                   26         27
    26  O    0.000000
    27  O    2.221985   0.000000
 Stoichiometry    C6H15N4O2(1-)
 Framework group  C1[X(C6H15N4O2)]
 Deg. of freedom    75
 Full point group                 C1      NOp   1
 Largest Abelian subgroup         C1      NOp   1
 Largest concise Abelian subgroup C1      NOp   1
                         Standard orientation:                         
 ---------------------------------------------------------------------
 Center     Atomic      Atomic             Coordinates (Angstroms)
 Number     Number       Type             X           Y           Z
 ---------------------------------------------------------------------
      1          7           0       -2.449416    1.662399    0.310696
      2          1           0       -1.892576    1.662998    1.156752
      3          1           0       -2.080651    2.395844   -0.276025
      4          1           0       -4.177368    1.141862    0.660810
      5          6           0       -2.348274    0.353851   -0.351761
      6          1           0       -2.341267    0.523392   -1.433019
      7          6           0       -1.094366   -0.433947    0.019321
      8          1           0       -1.158677   -1.421117   -0.440814
      9          1           0       -1.094226   -0.599552    1.104154
     10          6           0        0.189492    0.268689   -0.401996
     11          1           0        0.226232    1.274924    0.032090
     12          1           0        0.202134    0.402252   -1.488746
     13          6           0        1.455077   -0.475181    0.011253
     14          1           0        1.500275   -1.448716   -0.486269
     15          1           0        1.387818   -0.689721    1.097622
     16          7           0        2.637836    0.252295   -0.370972
     17          1           0        2.663477    1.140848    0.182919
     18          6           0        3.911479   -0.453357   -0.159437
     19          7           0        4.229333   -0.560255    1.253485
     20          1           0        3.544349   -1.136120    1.725937
     21          1           0        4.125326    0.377350    1.717803
     22          7           0        4.954497    0.390412   -0.715170
     23          1           0        4.679066    0.590396   -1.669220
     24          1           0        4.936895    1.306718   -0.211342
     25          6           0       -3.633932   -0.445756   -0.088210
     26          8           0       -4.586447    0.258346    0.524642
     27          8           0       -3.788980   -1.585986   -0.423886
 ---------------------------------------------------------------------
 Rotational constants (GHZ):           2.7669842           0.2562096           0.2486620
 Standard basis: def2TZVP (5D, 7F)
 There are   522 symmetry adapted cartesian basis functions of A   symmetry.
 There are   462 symmetry adapted basis functions of A   symmetry.
   462 basis functions,   732 primitive gaussians,   522 cartesian basis functions
    48 alpha electrons       48 beta electrons
       nuclear repulsion energy       711.3616610331 Hartrees.
 NAtoms=   27 NActive=   27 NUniq=   27 SFac= 1.00D+00 NAtFMM=   60 NAOKFM=F Big=F
 Integral buffers will be    131072 words long.
 Raffenetti 2 integral format.
 Two-electron integral symmetry is turned on.
 Nuclear repulsion after empirical dispersion term =      711.3441502998 Hartrees.
 One-electron integrals computed using PRISM.
   1 Symmetry operations used in ECPInt.
 ECPInt:  NShTT=   18528 NPrTT=   54924 LenC2=   16268 LenP2D=   36015.
 LDataN:  DoStor=T MaxTD1= 6 Len=  172
 NBasis=   462 RedAO= T EigKep=  7.71D-05  NBF=   462
 NBsUse=   462 1.00D-06 EigRej= -1.00D+00 NBFU=   462
 ExpMin= 9.52D-02 ExpMax= 2.70D+04 ExpMxC= 9.22D+02 IAcc=4 IRadAn=    299974 AccDes= 0.00D+00
 Harris functional with IExCor= 4639 and IRadAn=  299974 diagonalized for initial guess.
 HarFok:  IExCor= 4639 AccDes= 0.00D+00 IRadAn=    299974 IDoV= 1 UseB2=F ITyADJ=14
 ICtDFT=  3500011 ScaDFX=  1.000000  1.000000  1.000000  1.000000
 FoFCou: FMM=F IPFlag=           0 FMFlag=      100000 FMFlg1=           0
         NFxFlg=           0 DoJE=T BraDBF=F KetDBF=T FulRan=T
         wScrn=  0.000000 ICntrl=       500 IOpCl=  0 I1Cent=   200000004 NGrid=           0
         NMat0=    1 NMatS0=      1 NMatT0=    0 NMatD0=    1 NMtDS0=    0 NMtDT0=    0
 Petite list used in FoFCou.
 Requested convergence on RMS density matrix=1.00D-08 within 128 cycles.
 Requested convergence on MAX density matrix=1.00D-06.
 Requested convergence on             energy=1.00D-06.
 No special actions if energy rises.
 Integral accuracy reduced to 1.0D-05 until final iterations.
 Initial convergence to 1.0D-05 achieved.  Increase integral accuracy.
 SCF Done:  E(RwB97XD) =  -607.132929265     A.U. after   17 cycles
            NFock= 17  Conv=0.22D-08     -V/T= 2.0045

 **********************************************************************

            Population analysis using the SCF Density.

 **********************************************************************

 Orbital symmetries:
       Occupied  (A) (A) (A) (A) (A) (A) (A) (A) (A) (A) (A) (A)
                 (A) (A) (A) (A) (A) (A) (A) (A) (A) (A) (A) (A)
                 (A) (A) (A) (A) (A) (A) (A) (A) (A) (A) (A) (A)
                 (A) (A) (A) (A) (A) (A) (A) (A) (A) (A) (A) (A)
       Virtual   (A) (A) (A) (A) (A) (A) (A) (A) (A) (A) (A) (A)
                 (A) (A) (A) (A) (A) (A) (A) (A) (A) (A) (A) (A)
                 (A) (A) (A) (A) (A) (A) (A) (A) (A) (A) (A) (A)
                 (A) (A) (A) (A) (A) (A) (A) (A) (A) (A) (A) (A)
                 (A) (A) (A) (A) (A) (A) (A) (A) (A) (A) (A) (A)
                 (A) (A) (A) (A) (A) (A) (A) (A) (A) (A) (A) (A)
                 (A) (A) (A) (A) (A) (A) (A) (A) (A) (A) (A) (A)
                 (A) (A) (A) (A) (A) (A) (A) (A) (A) (A) (A) (A)
                 (A) (A) (A) (A) (A) (A) (A) (A) (A) (A) (A) (A)
                 (A) (A) (A) (A) (A) (A) (A) (A) (A) (A) (A) (A)
                 (A) (A) (A) (A) (A) (A) (A) (A) (A) (A) (A) (A)
                 (A) (A) (A) (A) (A) (A) (A) (A) (A) (A) (A) (A)
                 (A) (A) (A) (A) (A) (A) (A) (A) (A) (A) (A) (A)
                 (A) (A) (A) (A) (A) (A) (A) (A) (A) (A) (A) (A)
                 (A) (A) (A) (A) (A) (A) (A) (A) (A) (A) (A) (A)
                 (A) (A) (A) (A) (A) (A) (A) (A) (A) (A) (A) (A)
                 (A) (A) (A) (A) (A) (A) (A) (A) (A) (A) (A) (A)
                 (A) (A) (A) (A) (A) (A) (A) (A) (A) (A) (A) (A)
                 (A) (A) (A) (A) (A) (A) (A) (A) (A) (A) (A) (A)
                 (A) (A) (A) (A) (A) (A) (A) (A) (A) (A) (A) (A)
                 (A) (A) (A) (A) (A) (A) (A) (A) (A) (A) (A) (A)
                 (A) (A) (A) (A) (A) (A) (A) (A) (A) (A) (A) (A)
                 (A) (A) (A) (A) (A) (A) (A) (A) (A) (A) (A) (A)
                 (A) (A) (A) (A) (A) (A) (A) (A) (A) (A) (A) (A)
                 (A) (A) (A) (A) (A) (A) (A) (A) (A) (A) (A) (A)
                 (A) (A) (A) (A) (A) (A) (A) (A) (A) (A) (A) (A)
                 (A) (A) (A) (A) (A) (A) (A) (A) (A) (A) (A) (A)
                 (A) (A) (A) (A) (A) (A) (A) (A) (A) (A) (A) (A)
                 (A) (A) (A) (A) (A) (A) (A) (A) (A) (A) (A) (A)
                 (A) (A) (A) (A) (A) (A) (A) (A) (A) (A) (A) (A)
                 (A) (A) (A) (A) (A) (A) (A) (A) (A) (A) (A) (A)
                 (A) (A) (A) (A) (A) (A) (A) (A) (A) (A) (A) (A)
                 (A) (A) (A) (A) (A) (A) (A) (A) (A) (A) (A) (A)
                 (A) (A) (A) (A) (A) (A) (A) (A) (A) (A) (A) (A)
                 (A) (A) (A) (A) (A) (A)
 The electronic state is 1-A.
 Alpha  occ. eigenvalues --  -19.20420 -19.14474 -14.37146 -14.23883 -14.22590
 Alpha  occ. eigenvalues --  -14.22127 -10.32612 -10.25466 -10.19389 -10.16785
 Alpha  occ. eigenvalues --  -10.15855 -10.10009  -1.12370  -1.03767  -0.94109
 Alpha  occ. eigenvalues --   -0.85522  -0.80062  -0.77096  -0.73958  -0.71243
 Alpha  occ. eigenvalues --   -0.62973  -0.60593  -0.56961  -0.54590  -0.51429
 Alpha  occ. eigenvalues --   -0.48813  -0.47910  -0.45820  -0.45277  -0.43381
 Alpha  occ. eigenvalues --   -0.41501  -0.40406  -0.39078  -0.37143  -0.36267
 Alpha  occ. eigenvalues --   -0.35169  -0.33718  -0.32676  -0.31887  -0.31198
 Alpha  occ. eigenvalues --   -0.30524  -0.28665  -0.28250  -0.26191  -0.18661
 Alpha  occ. eigenvalues --   -0.15504  -0.11873  -0.03609
 Alpha virt. eigenvalues --    0.15792   0.18122   0.20609   0.22639   0.23394
 Alpha virt. eigenvalues --    0.25091   0.25759   0.26598   0.27616   0.28217
 Alpha virt. eigenvalues --    0.30002   0.30936   0.32241   0.32749   0.33108
 Alpha virt. eigenvalues --    0.34992   0.35192   0.35437   0.36257   0.37528
 Alpha virt. eigenvalues --    0.37814   0.39304   0.40682   0.42169   0.43937
 Alpha virt. eigenvalues --    0.43990   0.44787   0.45635   0.46359   0.47426
 Alpha virt. eigenvalues --    0.47631   0.48624   0.49466   0.50846   0.51417
 Alpha virt. eigenvalues --    0.52601   0.53488   0.53846   0.54813   0.55454
 Alpha virt. eigenvalues --    0.56136   0.56632   0.57439   0.57903   0.59373
 Alpha virt. eigenvalues --    0.59607   0.60768   0.61434   0.61924   0.62420
 Alpha virt. eigenvalues --    0.62761   0.63708   0.63959   0.64803   0.65264
 Alpha virt. eigenvalues --    0.65704   0.66138   0.66896   0.67706   0.69257
 Alpha virt. eigenvalues --    0.69472   0.70013   0.70897   0.71873   0.72066
 Alpha virt. eigenvalues --    0.72080   0.73375   0.73786   0.74484   0.75423
 Alpha virt. eigenvalues --    0.77208   0.78132   0.78742   0.79369   0.80683
 Alpha virt. eigenvalues --    0.82244   0.82498   0.83633   0.84464   0.85991
 Alpha virt. eigenvalues --    0.86106   0.88810   0.90548   0.91076   0.92738
 Alpha virt. eigenvalues --    0.94810   0.96370   0.97972   0.99443   1.00710
 Alpha virt. eigenvalues --    1.02817   1.04083   1.06082   1.06466   1.08165
 Alpha virt. eigenvalues --    1.09138   1.10052   1.10156   1.12826   1.15338
 Alpha virt. eigenvalues --    1.16933   1.17610   1.18765   1.21040   1.22719
 Alpha virt. eigenvalues --    1.23907   1.26229   1.28248   1.29973   1.30874
 Alpha virt. eigenvalues --    1.33298   1.34101   1.36384   1.38085   1.40135
 Alpha virt. eigenvalues --    1.40981   1.43098   1.46316   1.47215   1.48661
 Alpha virt. eigenvalues --    1.49451   1.50534   1.52373   1.52880   1.54026
 Alpha virt. eigenvalues --    1.54931   1.55850   1.57192   1.58227   1.60341
 Alpha virt. eigenvalues --    1.61376   1.63518   1.64821   1.65378   1.67074
 Alpha virt. eigenvalues --    1.67632   1.70131   1.70896   1.72584   1.73639
 Alpha virt. eigenvalues --    1.73888   1.75741   1.77782   1.78322   1.80159
 Alpha virt. eigenvalues --    1.80349   1.81918   1.83014   1.85180   1.86638
 Alpha virt. eigenvalues --    1.88751   1.89471   1.92850   1.93925   1.95298
 Alpha virt. eigenvalues --    1.95611   1.96832   1.98642   1.99510   2.00979
 Alpha virt. eigenvalues --    2.01456   2.04289   2.05280   2.06084   2.07932
 Alpha virt. eigenvalues --    2.09226   2.09957   2.10696   2.11476   2.13333
 Alpha virt. eigenvalues --    2.15510   2.15955   2.16598   2.18443   2.20643
 Alpha virt. eigenvalues --    2.21403   2.22159   2.22974   2.23503   2.25031
 Alpha virt. eigenvalues --    2.26019   2.26506   2.27097   2.28656   2.29303
 Alpha virt. eigenvalues --    2.31704   2.32794   2.33273   2.36852   2.37601
 Alpha virt. eigenvalues --    2.40098   2.40564   2.43677   2.44375   2.45336
 Alpha virt. eigenvalues --    2.46232   2.48327   2.49206   2.51691   2.51873
 Alpha virt. eigenvalues --    2.54797   2.56357   2.58273   2.58695   2.59984
 Alpha virt. eigenvalues --    2.60855   2.62351   2.65025   2.65612   2.67743
 Alpha virt. eigenvalues --    2.68635   2.68948   2.71157   2.72448   2.74119
 Alpha virt. eigenvalues --    2.74915   2.76089   2.77288   2.79105   2.80729
 Alpha virt. eigenvalues --    2.81775   2.82952   2.83773   2.84309   2.86054
 Alpha virt. eigenvalues --    2.88600   2.89446   2.90243   2.90678   2.91243
 Alpha virt. eigenvalues --    2.94160   2.94845   2.95735   2.96520   2.97331
 Alpha virt. eigenvalues --    2.99578   3.03771   3.05077   3.06591   3.07923
 Alpha virt. eigenvalues --    3.09149   3.10257   3.12207   3.13437   3.14659
 Alpha virt. eigenvalues --    3.17109   3.18918   3.21707   3.22736   3.25087
 Alpha virt. eigenvalues --    3.25817   3.26365   3.28811   3.29284   3.30295
 Alpha virt. eigenvalues --    3.31535   3.34592   3.38766   3.38866   3.40648
 Alpha virt. eigenvalues --    3.42244   3.42957   3.44338   3.45179   3.46316
 Alpha virt. eigenvalues --    3.46417   3.48826   3.49873   3.50995   3.51904
 Alpha virt. eigenvalues --    3.52504   3.53610   3.53849   3.56703   3.58650
 Alpha virt. eigenvalues --    3.60051   3.62176   3.63939   3.64819   3.65954
 Alpha virt. eigenvalues --    3.68072   3.69104   3.69563   3.70910   3.74017
 Alpha virt. eigenvalues --    3.75417   3.76484   3.77793   3.81389   3.82021
 Alpha virt. eigenvalues --    3.83553   3.85739   3.86517   3.88483   3.92450
 Alpha virt. eigenvalues --    3.93880   3.95116   3.99589   4.04135   4.04746
 Alpha virt. eigenvalues --    4.05937   4.07992   4.11017   4.12588   4.13996
 Alpha virt. eigenvalues --    4.14293   4.17965   4.20877   4.21022   4.22058
 Alpha virt. eigenvalues --    4.26315   4.31438   4.32678   4.36628   4.37925
 Alpha virt. eigenvalues --    4.40531   4.43778   4.48645   4.51377   4.53657
 Alpha virt. eigenvalues --    4.54429   4.56285   4.58728   4.59439   4.60845
 Alpha virt. eigenvalues --    4.64108   4.66178   4.70272   4.74347   4.74805
 Alpha virt. eigenvalues --    4.77461   4.81553   4.84617   4.88392   4.89954
 Alpha virt. eigenvalues --    4.91598   4.93538   4.97324   4.98614   4.99695
 Alpha virt. eigenvalues --    5.01056   5.01948   5.07512   5.09423   5.10152
 Alpha virt. eigenvalues --    5.11816   5.12816   5.16699   5.19203   5.20833
 Alpha virt. eigenvalues --    5.24949   5.26061   5.26943   5.30207   5.30771
 Alpha virt. eigenvalues --    5.34019   5.34941   5.35534   5.38099   5.38636
 Alpha virt. eigenvalues --    5.40798   5.42125   5.46294   5.46634   5.48834
 Alpha virt. eigenvalues --    5.49625   5.52977   5.57070   5.59726   5.61108
 Alpha virt. eigenvalues --    5.63848   5.68271   5.69677   5.72301   5.73097
 Alpha virt. eigenvalues --    5.74981   5.76379   5.80448   5.86126   5.87756
 Alpha virt. eigenvalues --    5.92528   5.94645   5.96964   6.01195   6.10710
 Alpha virt. eigenvalues --    6.16550   6.20344   6.25860   6.35952   6.36443
 Alpha virt. eigenvalues --    6.53631   6.58951   6.63521   6.67849   6.89957
 Alpha virt. eigenvalues --    6.90134   6.97030   7.00756   7.19117   7.30569
 Alpha virt. eigenvalues --    7.34111   7.46543  22.62018  22.71118  22.73367
 Alpha virt. eigenvalues --   22.76959  22.80132  23.51683  32.20083  32.22248
 Alpha virt. eigenvalues --   32.30881  32.74963  44.02112  44.08743
          Condensed to atoms (all electrons):
               1          2          3          4          5          6
     1  N    6.771173   0.368694   0.372489   0.056222   0.142739  -0.044790
     2  H    0.368694   0.441809  -0.028764  -0.001654  -0.033594   0.005964
     3  H    0.372489  -0.028764   0.442042  -0.000773  -0.019349  -0.010993
     4  H    0.056222  -0.001654  -0.000773   0.358835  -0.017516   0.001364
     5  C    0.142739  -0.033594  -0.019349  -0.017516   5.404341   0.404246
     6  H   -0.044790   0.005964  -0.010993   0.001364   0.404246   0.578484
     7  C   -0.050527  -0.005890  -0.002926   0.003811   0.223670  -0.035723
     8  H    0.008511   0.000338  -0.000453  -0.000235  -0.044728  -0.003121
     9  H   -0.010421   0.004960  -0.000163  -0.000099  -0.025045   0.008551
    10  C    0.010154  -0.000174   0.001700  -0.000245  -0.041588  -0.003584
    11  H    0.017682   0.003250  -0.000416   0.000006  -0.024006  -0.000814
    12  H   -0.001745   0.000352   0.000413  -0.000046   0.006032   0.003025
    13  C    0.001896  -0.000503   0.000176   0.000005  -0.014429   0.000732
    14  H   -0.000106   0.000051  -0.000006   0.000000   0.001675  -0.000013
    15  H    0.000066  -0.000003   0.000048  -0.000001   0.002230  -0.000247
    16  N    0.000117   0.000006   0.000008  -0.000000  -0.000980  -0.000071
    17  H   -0.000183   0.000110   0.000004  -0.000000   0.001144  -0.000057
    18  C    0.000017  -0.000009   0.000000  -0.000000  -0.000160   0.000004
    19  N   -0.000000   0.000002   0.000000   0.000000   0.000025  -0.000001
    20  H   -0.000000   0.000000  -0.000000   0.000000   0.000006   0.000000
    21  H   -0.000001   0.000005   0.000000  -0.000000   0.000027  -0.000001
    22  N   -0.000000   0.000000   0.000000  -0.000000  -0.000002  -0.000000
    23  H   -0.000000  -0.000000   0.000000   0.000000   0.000001  -0.000000
    24  H   -0.000000   0.000000   0.000000  -0.000000   0.000007  -0.000000
    25  C   -0.006146  -0.000623   0.000445  -0.034420   0.233492  -0.014157
    26  O   -0.045386   0.000868   0.000307   0.288907  -0.123788   0.001699
    27  O    0.005319  -0.000022  -0.000214   0.005001  -0.131376   0.002426
               7          8          9         10         11         12
     1  N   -0.050527   0.008511  -0.010421   0.010154   0.017682  -0.001745
     2  H   -0.005890   0.000338   0.004960  -0.000174   0.003250   0.000352
     3  H   -0.002926  -0.000453  -0.000163   0.001700  -0.000416   0.000413
     4  H    0.003811  -0.000235  -0.000099  -0.000245   0.000006  -0.000046
     5  C    0.223670  -0.044728  -0.025045  -0.041588  -0.024006   0.006032
     6  H   -0.035723  -0.003121   0.008551  -0.003584  -0.000814   0.003025
     7  C    5.320248   0.396115   0.389620   0.142748  -0.057282  -0.019894
     8  H    0.396115   0.532356  -0.016358  -0.017352   0.007851  -0.006894
     9  H    0.389620  -0.016358   0.599642  -0.058302  -0.005977   0.008358
    10  C    0.142748  -0.017352  -0.058302   5.298057   0.411721   0.355342
    11  H   -0.057282   0.007851  -0.005977   0.411721   0.667162  -0.042491
    12  H   -0.019894  -0.006894   0.008358   0.355342  -0.042491   0.625058
    13  C   -0.058279   0.005302   0.006346   0.147623  -0.032493  -0.025530
    14  H   -0.027686   0.003438  -0.001390   0.044794   0.012336  -0.013981
    15  H    0.049924  -0.002756   0.004784  -0.096195  -0.014847   0.018681
    16  N    0.011321   0.000130   0.000222  -0.098319  -0.005408   0.018756
    17  H   -0.002420  -0.000154  -0.000383   0.038418   0.019245  -0.000386
    18  C   -0.003211  -0.000089   0.000177  -0.006172  -0.001833  -0.000127
    19  N    0.001588  -0.000005  -0.000142   0.006528  -0.000282   0.000201
    20  H   -0.000148   0.000014  -0.000042   0.001431   0.000051  -0.000131
    21  H    0.000054  -0.000015  -0.000055   0.005549   0.000989   0.000087
    22  N   -0.000113   0.000000  -0.000001  -0.001163  -0.000038  -0.000129
    23  H    0.000075  -0.000002   0.000001  -0.000351  -0.000074   0.000372
    24  H    0.000001  -0.000003  -0.000001   0.002433   0.000314   0.000225
    25  C   -0.018202  -0.002265  -0.002205  -0.004092  -0.000424   0.000692
    26  O   -0.001461   0.000947   0.002266  -0.000662  -0.000009   0.000012
    27  O    0.011580   0.012346   0.000309  -0.001351  -0.000079   0.000025
              13         14         15         16         17         18
     1  N    0.001896  -0.000106   0.000066   0.000117  -0.000183   0.000017
     2  H   -0.000503   0.000051  -0.000003   0.000006   0.000110  -0.000009
     3  H    0.000176  -0.000006   0.000048   0.000008   0.000004   0.000000
     4  H    0.000005   0.000000  -0.000001  -0.000000  -0.000000  -0.000000
     5  C   -0.014429   0.001675   0.002230  -0.000980   0.001144  -0.000160
     6  H    0.000732  -0.000013  -0.000247  -0.000071  -0.000057   0.000004
     7  C   -0.058279  -0.027686   0.049924   0.011321  -0.002420  -0.003211
     8  H    0.005302   0.003438  -0.002756   0.000130  -0.000154  -0.000089
     9  H    0.006346  -0.001390   0.004784   0.000222  -0.000383   0.000177
    10  C    0.147623   0.044794  -0.096195  -0.098319   0.038418  -0.006172
    11  H   -0.032493   0.012336  -0.014847  -0.005408   0.019245  -0.001833
    12  H   -0.025530  -0.013981   0.018681   0.018756  -0.000386  -0.000127
    13  C    5.205127   0.282013   0.344120   0.437837  -0.165892  -0.068883
    14  H    0.282013   0.677826  -0.069894  -0.055784   0.043826   0.035801
    15  H    0.344120  -0.069894   0.867181  -0.103657  -0.005571  -0.034741
    16  N    0.437837  -0.055784  -0.103657   6.820494   0.147234   0.516737
    17  H   -0.165892   0.043826  -0.005571   0.147234   1.007431  -0.277438
    18  C   -0.068883   0.035801  -0.034741   0.516737  -0.277438   5.698894
    19  N    0.015681  -0.002855   0.040901  -0.158890  -0.016816   0.351443
    20  H    0.005782   0.000712  -0.002626   0.007054  -0.001107  -0.075561
    21  H   -0.016153   0.008400   0.006895  -0.044330   0.127412  -0.270928
    22  N    0.006771   0.003244  -0.000273  -0.177547   0.025995   0.408949
    23  H    0.000890  -0.000515   0.000541   0.012371   0.001791  -0.074471
    24  H   -0.007864   0.002705   0.001202  -0.045322   0.102996  -0.247064
    25  C   -0.000308  -0.000138   0.000418  -0.000003   0.000008  -0.000003
    26  O    0.000004  -0.000001  -0.000001  -0.000000  -0.000000   0.000000
    27  O    0.000197  -0.000029  -0.000004  -0.000000   0.000000   0.000000
              19         20         21         22         23         24
     1  N   -0.000000  -0.000000  -0.000001  -0.000000  -0.000000  -0.000000
     2  H    0.000002   0.000000   0.000005   0.000000  -0.000000   0.000000
     3  H    0.000000  -0.000000   0.000000   0.000000   0.000000   0.000000
     4  H    0.000000   0.000000  -0.000000  -0.000000   0.000000  -0.000000
     5  C    0.000025   0.000006   0.000027  -0.000002   0.000001   0.000007
     6  H   -0.000001   0.000000  -0.000001  -0.000000  -0.000000  -0.000000
     7  C    0.001588  -0.000148   0.000054  -0.000113   0.000075   0.000001
     8  H   -0.000005   0.000014  -0.000015   0.000000  -0.000002  -0.000003
     9  H   -0.000142  -0.000042  -0.000055  -0.000001   0.000001  -0.000001
    10  C    0.006528   0.001431   0.005549  -0.001163  -0.000351   0.002433
    11  H   -0.000282   0.000051   0.000989  -0.000038  -0.000074   0.000314
    12  H    0.000201  -0.000131   0.000087  -0.000129   0.000372   0.000225
    13  C    0.015681   0.005782  -0.016153   0.006771   0.000890  -0.007864
    14  H   -0.002855   0.000712   0.008400   0.003244  -0.000515   0.002705
    15  H    0.040901  -0.002626   0.006895  -0.000273   0.000541   0.001202
    16  N   -0.158890   0.007054  -0.044330  -0.177547   0.012371  -0.045322
    17  H   -0.016816  -0.001107   0.127412   0.025995   0.001791   0.102996
    18  C    0.351443  -0.075561  -0.270928   0.408949  -0.074471  -0.247064
    19  N    6.736785   0.391873   0.235066  -0.092850   0.012871  -0.025973
    20  H    0.391873   0.554132  -0.059224   0.010026  -0.001458  -0.001965
    21  H    0.235066  -0.059224   0.911358  -0.008551  -0.000112   0.094012
    22  N   -0.092850   0.010026  -0.008551   6.691059   0.367356   0.274589
    23  H    0.012871  -0.001458  -0.000112   0.367356   0.553847  -0.037131
    24  H   -0.025973  -0.001965   0.094012   0.274589  -0.037131   0.842735
    25  C    0.000000  -0.000000   0.000000  -0.000000   0.000000   0.000000
    26  O   -0.000000  -0.000000   0.000000  -0.000000  -0.000000   0.000000
    27  O    0.000000  -0.000000   0.000000   0.000000   0.000000   0.000000
              25         26         27
     1  N   -0.006146  -0.045386   0.005319
     2  H   -0.000623   0.000868  -0.000022
     3  H    0.000445   0.000307  -0.000214
     4  H   -0.034420   0.288907   0.005001
     5  C    0.233492  -0.123788  -0.131376
     6  H   -0.014157   0.001699   0.002426
     7  C   -0.018202  -0.001461   0.011580
     8  H   -0.002265   0.000947   0.012346
     9  H   -0.002205   0.002266   0.000309
    10  C   -0.004092  -0.000662  -0.001351
    11  H   -0.000424  -0.000009  -0.000079
    12  H    0.000692   0.000012   0.000025
    13  C   -0.000308   0.000004   0.000197
    14  H   -0.000138  -0.000001  -0.000029
    15  H    0.000418  -0.000001  -0.000004
    16  N   -0.000003  -0.000000  -0.000000
    17  H    0.000008  -0.000000   0.000000
    18  C   -0.000003   0.000000   0.000000
    19  N    0.000000  -0.000000   0.000000
    20  H   -0.000000  -0.000000  -0.000000
    21  H    0.000000   0.000000   0.000000
    22  N   -0.000000  -0.000000   0.000000
    23  H    0.000000  -0.000000   0.000000
    24  H    0.000000   0.000000   0.000000
    25  C    4.436031   0.392307   0.700653
    26  O    0.392307   7.953859  -0.085405
    27  O    0.700653  -0.085405   7.840554
 Mulliken charges:
               1
     1  N   -0.595771
     2  H    0.244824
     3  H    0.246423
     4  H    0.340840
     5  C    0.056925
     6  H    0.107076
     7  C   -0.266992
     8  H    0.127080
     9  H    0.095347
    10  C   -0.136948
    11  H    0.045866
    12  H    0.073725
    13  C   -0.070168
    14  H    0.055577
    15  H   -0.006174
    16  N   -0.281977
    17  H   -0.045203
    18  C    0.048669
    19  N   -0.495152
    20  H    0.171182
    21  H    0.009517
    22  N   -0.507322
    23  H    0.163999
    24  H    0.044106
    25  C    0.318939
    26  O   -0.384462
    27  O   -0.359928
 Sum of Mulliken charges =  -1.00000
 Mulliken charges with hydrogens summed into heavy atoms:
               1
     1  N   -0.104524
     5  C    0.164002
     7  C   -0.044564
    10  C   -0.017357
    13  C   -0.020765
    16  N   -0.327180
    18  C    0.048669
    19  N   -0.314453
    22  N   -0.299217
    25  C    0.318939
    26  O   -0.043622
    27  O   -0.359928
 Electronic spatial extent (au):  <R**2>=           4290.8661
 Charge=             -1.0000 electrons
 Dipole moment (field-independent basis, Debye):
    X=            -14.0997    Y=              5.7926    Z=              0.8524  Tot=             15.2670
 Quadrupole moment (field-independent basis, Debye-Ang):
   XX=           -197.7451   YY=            -83.4946   ZZ=            -78.5546
   XY=             -2.8734   XZ=              0.4253   YZ=             -1.5917
 Traceless Quadrupole moment (field-independent basis, Debye-Ang):
   XX=            -77.8137   YY=             36.4368   ZZ=             41.3768
   XY=             -2.8734   XZ=              0.4253   YZ=             -1.5917
 Octapole moment (field-independent basis, Debye-Ang**2):
  XXX=           -355.6351  YYY=             21.1563  ZZZ=             -3.1659  XYY=            -19.8633
  XXY=             94.0159  XXZ=             -8.6496  XZZ=            -33.6718  YZZ=              4.9577
  YYZ=              3.6958  XYZ=              4.3171
 Hexadecapole moment (field-independent basis, Debye-Ang**3):
 XXXX=          -8079.0870 YYYY=           -422.3989 ZZZZ=           -266.8556 XXXY=             52.2377
 XXXZ=            -26.4610 YYYX=            -25.2041 YYYZ=            -10.2787 ZZZX=            -33.9082
 ZZZY=             -0.8674 XXYY=          -1042.8648 XXZZ=           -947.7686 YYZZ=           -113.9267
 XXYZ=            -12.4832 YYXZ=             -7.1029 ZZXY=              3.2751
 N-N= 7.113441502998D+02 E-N=-2.854490596677D+03  KE= 6.044165570081D+02
 Unable to Open any file for archive entry.
 1\1\GINC-WATER\SP\RwB97XD\def2TZVP\C6H15N4O2(1-)\DAYALYZ\10-Jun-2025\0
 \\# wB97xD/Def2TZVP SCF(Tight) Int(Grid=299974)\\Displacement_-0.03\\-
 1,1\N,0,-2.449391,1.662106,0.312579\H,0,-1.892601,1.661727,1.158668\H,
 0,-2.080546,2.396181,-0.273303\H,0,-4.177396,1.141286,0.662011\C,0,-2.
 348291,0.354291,-0.351331\H,0,-2.34121,0.525036,-1.432399\C,0,-1.09445
 4,-0.433998,0.018947\H,0,-1.158799,-1.420651,-0.442292\H,0,-1.094388,-
 0.600813,1.103594\C,0,0.189472,0.269027,-0.401511\H,0,0.226249,1.27477
 5,0.033698\H,0,0.202187,0.403801,-1.488111\C,0,1.454987,-0.475381,0.01
 0983\H,0,1.500154,-1.448364,-0.487622\H,0,1.387651,-0.691128,1.097108\
 N,0,2.637813,0.252447,-0.370362\H,0,2.663477,1.14038,0.184521\C,0,3.91
 14,-0.45352,-0.159539\N,0,4.229164,-0.562012,1.253282\H,0,3.544117,-1.
 138361,1.725052\H,0,4.125188,0.375081,1.718639\N,0,4.954503,0.390804,-
 0.714269\H,0,4.679141,0.591868,-1.668112\H,0,4.936928,1.306549,-0.2094
 21\C,0,-3.634014,-0.44553,-0.088747\O,0,-4.586522,0.257947,0.524834\O,
 0,-3.789113,-1.585375,-0.425703\\Version=ES64L-G16RevC.01\State=1-A\HF
 =-607.1329293\RMSD=2.246e-09\Dipole=-5.5471287,2.2789584,0.3375717\Qua
 drupole=-57.8528596,27.0928049,30.7600548,-2.1312803,0.3085687,-1.1876
 393\PG=C01 [X(C6H15N4O2)]\\@
 The archive entry for this job was punched.


 Spring appears, and we are once more children.
                                  -- Anonymous
 Job cpu time:       0 days  0 hours 49 minutes 12.1 seconds.
 Elapsed time:       0 days  0 hours 49 minutes 18.4 seconds.
 File lengths (MBytes):  RWF=    118 Int=      0 D2E=      0 Chk=     13 Scr=      1
 Normal termination of Gaussian 16 at Tue Jun 10 18:45:38 2025.
