 Entering Gaussian System, Link 0=g16
 Initial command:
 /opt/gaussian/g16/l1.exe "/scratch/Gau-4136947.inp" -scrdir="/scratch/"
 Entering Link 1 = /opt/gaussian/g16/l1.exe PID=   4136948.
  
 Copyright (c) 1988-2019, Gaussian, Inc.  All Rights Reserved.
  
 This is part of the Gaussian(R) 16 program.  It is based on
 the Gaussian(R) 09 system (copyright 2009, Gaussian, Inc.),
 the Gaussian(R) 03 system (copyright 2003, Gaussian, Inc.),
 the Gaussian(R) 98 system (copyright 1998, Gaussian, Inc.),
 the Gaussian(R) 94 system (copyright 1995, Gaussian, Inc.),
 the Gaussian 92(TM) system (copyright 1992, Gaussian, Inc.),
 the Gaussian 90(TM) system (copyright 1990, Gaussian, Inc.),
 the Gaussian 88(TM) system (copyright 1988, Gaussian, Inc.),
 the Gaussian 86(TM) system (copyright 1986, Carnegie Mellon
 University), and the Gaussian 82(TM) system (copyright 1983,
 Carnegie Mellon University). Gaussian is a federally registered
 trademark of Gaussian, Inc.
  
 This software contains proprietary and confidential information,
 including trade secrets, belonging to Gaussian, Inc.
  
 This software is provided under written license and may be
 used, copied, transmitted, or stored only in accord with that
 written license.
  
 The following legend is applicable only to US Government
 contracts under FAR:
  
                    RESTRICTED RIGHTS LEGEND
  
 Use, reproduction and disclosure by the US Government is
 subject to restrictions as set forth in subparagraphs (a)
 and (c) of the Commercial Computer Software - Restricted
 Rights clause in FAR 52.227-19.
  
 Gaussian, Inc.
 340 Quinnipiac St., Bldg. 40, Wallingford CT 06492
  
  
 ---------------------------------------------------------------
 Warning -- This program may not be used in any manner that
 competes with the business of Gaussian, Inc. or will provide
 assistance to any competitor of Gaussian, Inc.  The licensee
 of this program is prohibited from giving any competitor of
 Gaussian, Inc. access to this program.  By using this program,
 the user acknowledges that Gaussian, Inc. is engaged in the
 business of creating and licensing software in the field of
 computational chemistry and represents and warrants to the
 licensee that it is not a competitor of Gaussian, Inc. and that
 it will not use this program in any manner prohibited above.
 ---------------------------------------------------------------
  

 Cite this work as:
 Gaussian 16, Revision C.01,
 M. J. Frisch, G. W. Trucks, H. B. Schlegel, G. E. Scuseria, 
 M. A. Robb, J. R. Cheeseman, G. Scalmani, V. Barone, 
 G. A. Petersson, H. Nakatsuji, X. Li, M. Caricato, A. V. Marenich, 
 J. Bloino, B. G. Janesko, R. Gomperts, B. Mennucci, H. P. Hratchian, 
 J. V. Ortiz, A. F. Izmaylov, J. L. Sonnenberg, D. Williams-Young, 
 F. Ding, F. Lipparini, F. Egidi, J. Goings, B. Peng, A. Petrone, 
 T. Henderson, D. Ranasinghe, V. G. Zakrzewski, J. Gao, N. Rega, 
 G. Zheng, W. Liang, M. Hada, M. Ehara, K. Toyota, R. Fukuda, 
 J. Hasegawa, M. Ishida, T. Nakajima, Y. Honda, O. Kitao, H. Nakai, 
 T. Vreven, K. Throssell, J. A. Montgomery, Jr., J. E. Peralta, 
 F. Ogliaro, M. J. Bearpark, J. J. Heyd, E. N. Brothers, K. N. Kudin, 
 V. N. Staroverov, T. A. Keith, R. Kobayashi, J. Normand, 
 K. Raghavachari, A. P. Rendell, J. C. Burant, S. S. Iyengar, 
 J. Tomasi, M. Cossi, J. M. Millam, M. Klene, C. Adamo, R. Cammi, 
 J. W. Ochterski, R. L. Martin, K. Morokuma, O. Farkas, 
 J. B. Foresman, and D. J. Fox, Gaussian, Inc., Wallingford CT, 2019.
 
 ******************************************
 Gaussian 16:  ES64L-G16RevC.01  3-Jul-2019
                10-Jun-2025 
 ******************************************
 ---------------------------------------------
 # wB97xD/Def2TZVP SCF(Tight) Int(Grid=299974)
 ---------------------------------------------
 1/38=1,172=1/1;
 2/12=2,17=6,18=5,40=1/2;
 3/5=44,7=101,11=2,25=1,30=1,74=-58,75=299974/1,2,3;
 4//1;
 5/5=2,32=2,38=5/2;
 6/7=2,8=2,9=2,10=2,28=1/1;
 99/5=1,9=1/99;
 ------------------
 Displacement_-0.01
 ------------------
 Symbolic Z-matrix:
 Charge = -1 Multiplicity = 1
 N                    -2.44939   1.66211   0.31258 
 H                    -1.8926    1.66173   1.15867 
 H                    -2.08055   2.39618  -0.2733 
 H                    -4.1774    1.14129   0.66201 
 C                    -2.34829   0.35429  -0.35133 
 H                    -2.34121   0.52504  -1.4324 
 C                    -1.09445  -0.434     0.01895 
 H                    -1.1588   -1.42065  -0.44229 
 H                    -1.09439  -0.60081   1.10359 
 C                     0.18947   0.26903  -0.40151 
 H                     0.22625   1.27477   0.0337 
 H                     0.20219   0.4038   -1.48811 
 C                     1.45499  -0.47538   0.01098 
 H                     1.50015  -1.44856  -0.48742 
 H                     1.38745  -0.69133   1.09711 
 N                     2.63781   0.25245  -0.37036 
 H                     2.66348   1.14038   0.18472 
 C                     3.9112   -0.45352  -0.15934 
 N                     4.22896  -0.56181   1.25428 
 H                     3.54492  -1.14556   1.71765 
 H                     4.13019   0.37908   1.70984 
 N                     4.9543    0.39     -0.71387 
 H                     4.68074   0.60087  -1.66631 
 H                     4.93753   1.31155  -0.21742 
 C                    -3.63401  -0.44553  -0.08875 
 O                    -4.58652   0.25795   0.52483 
 O                    -3.78911  -1.58538  -0.4257 
 
                          Input orientation:                          
 ---------------------------------------------------------------------
 Center     Atomic      Atomic             Coordinates (Angstroms)
 Number     Number       Type             X           Y           Z
 ---------------------------------------------------------------------
      1          7           0       -2.449391    1.662106    0.312579
      2          1           0       -1.892601    1.661727    1.158668
      3          1           0       -2.080546    2.396181   -0.273303
      4          1           0       -4.177396    1.141286    0.662011
      5          6           0       -2.348291    0.354291   -0.351331
      6          1           0       -2.341210    0.525036   -1.432399
      7          6           0       -1.094454   -0.433998    0.018947
      8          1           0       -1.158799   -1.420651   -0.442292
      9          1           0       -1.094388   -0.600813    1.103594
     10          6           0        0.189472    0.269027   -0.401511
     11          1           0        0.226249    1.274775    0.033698
     12          1           0        0.202187    0.403801   -1.488111
     13          6           0        1.454987   -0.475381    0.010983
     14          1           0        1.500154   -1.448564   -0.487422
     15          1           0        1.387451   -0.691328    1.097108
     16          7           0        2.637813    0.252447   -0.370362
     17          1           0        2.663477    1.140380    0.184721
     18          6           0        3.911200   -0.453520   -0.159339
     19          7           0        4.228964   -0.561812    1.254282
     20          1           0        3.544917   -1.145561    1.717652
     21          1           0        4.130188    0.379081    1.709839
     22          7           0        4.954303    0.390004   -0.713869
     23          1           0        4.680741    0.600868   -1.666312
     24          1           0        4.937528    1.311549   -0.217421
     25          6           0       -3.634014   -0.445530   -0.088747
     26          8           0       -4.586522    0.257947    0.524834
     27          8           0       -3.789113   -1.585375   -0.425703
 ---------------------------------------------------------------------
                    Distance matrix (angstroms):
                    1          2          3          4          5
     1  N    0.000000
     2  H    1.012858   0.000000
     3  H    1.009044   1.620274   0.000000
     4  H    1.838303   2.395374   2.616554   0.000000
     5  C    1.470162   2.048692   2.060847   2.234244   0.000000
     6  H    2.085565   2.864777   2.216446   2.852700   1.094492
     7  C    2.513111   2.515565   3.011262   3.521304   1.526634
     8  H    3.426200   3.550013   3.930188   4.110345   2.138594
     9  H    2.753641   2.399847   3.442430   3.568591   2.145065
    10  C    3.068255   2.951068   3.113552   4.578368   2.539691
    11  H    2.717876   2.429982   2.583235   4.450246   2.761122
    12  H    3.443353   3.602215   3.264385   4.934334   2.792787
    13  C    4.461387   4.134097   4.563626   5.895862   3.909546
    14  H    5.090695   4.888181   5.258262   6.345321   4.251980
    15  H    4.568971   4.037251   4.841254   5.874973   4.140901
    16  N    5.322893   4.984842   5.183428   6.950029   4.987180
    17  H    5.141008   4.688094   4.928750   6.857503   5.101285
    18  C    6.719799   6.316290   6.635872   8.285132   6.314321
    19  N    7.101622   6.513588   7.133944   8.597570   6.832095
    20  H    6.766753   6.144911   6.939285   8.122694   6.423406
    21  H    6.847580   6.182472   6.824570   8.408023   6.798509
    22  N    7.581987   7.211364   7.328570   9.265279   7.311675
    23  H    7.475361   7.232894   7.132925   9.174951   7.155226
    24  H    7.414200   6.976167   7.101613   9.158833   7.349655
    25  C    2.450821   3.004845   3.243863   1.837631   1.536798
    26  O    2.565939   3.103152   3.389540   0.983102   2.405541
    27  O    3.589714   4.080522   4.335345   2.961176   2.417396
                    6          7          8          9         10
     6  H    0.000000
     7  C    2.140222   0.000000
     8  H    2.482762   1.091039   0.000000
     9  H    3.041934   1.097400   1.751013   0.000000
    10  C    2.744562   1.522989   2.162061   2.161078   0.000000
    11  H    3.050147   2.159717   3.067612   2.531124   1.096489
    12  H    2.546894   2.157408   2.504924   3.067131   1.095000
    13  C    4.182738   2.549789   2.816180   2.776481   1.525065
    14  H    4.420877   2.831562   2.659482   3.159377   2.162264
    15  H    4.666997   2.718180   3.063503   2.483498   2.145529
    16  N    5.098323   3.814785   4.149541   4.102429   2.448595
    17  H    5.295339   4.077768   4.643471   4.242361   2.687680
    18  C    6.455299   5.008866   5.169168   5.164553   3.798945
    19  N    7.180994   5.466367   5.713489   5.325627   4.444034
    20  H    6.881875   4.991561   5.183240   4.711366   4.213184
    21  H    7.195412   5.551315   5.986993   5.350133   4.472041
    22  N    7.332055   6.148452   6.381398   6.393086   4.776591
    23  H    7.026255   6.104418   6.299602   6.516788   4.677749
    24  H    7.421240   6.283917   6.684361   6.464226   4.864646
    25  C    2.102080   2.541869   2.683756   2.809891   3.902238
    26  O    2.990572   3.595726   3.937297   3.642449   4.865014
    27  O    2.750217   2.963877   2.635519   3.251101   4.389593
                   11         12         13         14         15
    11  H    0.000000
    12  H    1.753590   0.000000
    13  C    2.138541   2.142371   0.000000
    14  H    3.051389   2.473328   1.094318   0.000000
    15  H    2.518887   3.047543   1.109442   1.759785   0.000000
    16  N    2.650294   2.684128   1.440220   2.049734   2.146528
    17  H    2.445598   3.065757   2.025171   2.916801   2.411607
    18  C    4.074694   4.032048   2.462208   2.628858   2.829226
    19  N    4.569968   4.966695   3.041087   3.356526   2.848802
    20  H    4.439289   4.883778   2.780228   3.022452   2.290428
    21  H    4.341942   5.065243   3.282212   3.883983   3.007295
    22  N    4.867871   4.814795   3.676889   3.919535   4.143833
    23  H    4.815255   4.486428   3.791717   3.963091   4.489100
    24  H    4.718110   4.986192   3.920890   4.416635   4.282820
    25  C    4.228010   4.170854   5.090066   5.246399   5.165441
    26  O    4.943472   5.196629   6.107507   6.401911   6.075934
    27  O    4.951226   4.584322   5.378045   5.291396   5.469469
                   16         17         18         19         20
    16  N    0.000000
    17  H    1.047474   0.000000
    18  C    1.471202   2.053219   0.000000
    19  N    2.415419   2.547973   1.452937   0.000000
    20  H    2.671529   2.890042   2.033760   1.011630   0.000000
    21  H    2.563290   2.248733   2.057913   1.050033   1.633137
    22  N    2.345857   2.572627   1.451585   2.303408   3.202596
    23  H    2.444266   2.790475   1.993714   3.175814   3.973830
    24  H    2.536489   2.315669   2.042594   2.485448   3.423633
    25  C    6.316826   6.499868   7.545548   7.977698   7.435736
    26  O    7.279589   7.311419   8.554856   8.883518   8.337443
    27  O    6.684761   7.031236   7.787610   8.255882   7.653457
                   21         22         23         24         25
    21  H    0.000000
    22  N    2.560009   0.000000
    23  H    3.427928   1.013137   0.000000
    24  H    2.288149   1.046894   1.634103   0.000000
    25  C    8.012348   8.651479   8.527533   8.750727   0.000000
    26  O    8.797724   9.621807   9.528950   9.610856   1.333654
    27  O    8.434154   8.968416   8.834998   9.197272   1.198683
                   26         27
    26  O    0.000000
    27  O    2.221985   0.000000
 Stoichiometry    C6H15N4O2(1-)
 Framework group  C1[X(C6H15N4O2)]
 Deg. of freedom    75
 Full point group                 C1      NOp   1
 Largest Abelian subgroup         C1      NOp   1
 Largest concise Abelian subgroup C1      NOp   1
                         Standard orientation:                         
 ---------------------------------------------------------------------
 Center     Atomic      Atomic             Coordinates (Angstroms)
 Number     Number       Type             X           Y           Z
 ---------------------------------------------------------------------
      1          7           0       -2.449399    1.662204    0.311953
      2          1           0       -1.892593    1.662150    1.158031
      3          1           0       -2.080581    2.396069   -0.274208
      4          1           0       -4.177387    1.141478    0.661612
      5          6           0       -2.348285    0.354145   -0.351474
      6          1           0       -2.341229    0.524489   -1.432605
      7          6           0       -1.094425   -0.433981    0.019071
      8          1           0       -1.158758   -1.420806   -0.441801
      9          1           0       -1.094334   -0.600394    1.103780
     10          6           0        0.189479    0.268915   -0.401672
     11          1           0        0.226243    1.274825    0.033163
     12          1           0        0.202169    0.403286   -1.488322
     13          6           0        1.455017   -0.475314    0.011073
     14          1           0        1.500194   -1.448681   -0.486973
     15          1           0        1.387507   -0.690860    1.097279
     16          7           0        2.637821    0.252397   -0.370565
     17          1           0        2.663477    1.140536    0.184188
     18          6           0        3.911226   -0.453465   -0.159306
     19          7           0        4.229020   -0.561227    1.254349
     20          1           0        3.544994   -1.144818    1.717949
     21          1           0        4.130234    0.379833    1.709559
     22          7           0        4.954301    0.389875   -0.714169
     23          1           0        4.680716    0.600380   -1.666684
     24          1           0        4.937517    1.311603   -0.218062
     25          6           0       -3.633986   -0.445605   -0.088568
     26          8           0       -4.586497    0.258079    0.524771
     27          8           0       -3.789069   -1.585578   -0.425099
 ---------------------------------------------------------------------
 Rotational constants (GHZ):           2.7669812           0.2562139           0.2486585
 Standard basis: def2TZVP (5D, 7F)
 There are   522 symmetry adapted cartesian basis functions of A   symmetry.
 There are   462 symmetry adapted basis functions of A   symmetry.
   462 basis functions,   732 primitive gaussians,   522 cartesian basis functions
    48 alpha electrons       48 beta electrons
       nuclear repulsion energy       711.3615518362 Hartrees.
 NAtoms=   27 NActive=   27 NUniq=   27 SFac= 1.00D+00 NAtFMM=   60 NAOKFM=F Big=F
 Integral buffers will be    131072 words long.
 Raffenetti 2 integral format.
 Two-electron integral symmetry is turned on.
 Nuclear repulsion after empirical dispersion term =      711.3440422545 Hartrees.
 One-electron integrals computed using PRISM.
   1 Symmetry operations used in ECPInt.
 ECPInt:  NShTT=   18528 NPrTT=   54924 LenC2=   16268 LenP2D=   36013.
 LDataN:  DoStor=T MaxTD1= 6 Len=  172
 NBasis=   462 RedAO= T EigKep=  7.71D-05  NBF=   462
 NBsUse=   462 1.00D-06 EigRej= -1.00D+00 NBFU=   462
 ExpMin= 9.52D-02 ExpMax= 2.70D+04 ExpMxC= 9.22D+02 IAcc=4 IRadAn=    299974 AccDes= 0.00D+00
 Harris functional with IExCor= 4639 and IRadAn=  299974 diagonalized for initial guess.
 HarFok:  IExCor= 4639 AccDes= 0.00D+00 IRadAn=    299974 IDoV= 1 UseB2=F ITyADJ=14
 ICtDFT=  3500011 ScaDFX=  1.000000  1.000000  1.000000  1.000000
 FoFCou: FMM=F IPFlag=           0 FMFlag=      100000 FMFlg1=           0
         NFxFlg=           0 DoJE=T BraDBF=F KetDBF=T FulRan=T
         wScrn=  0.000000 ICntrl=       500 IOpCl=  0 I1Cent=   200000004 NGrid=           0
         NMat0=    1 NMatS0=      1 NMatT0=    0 NMatD0=    1 NMtDS0=    0 NMtDT0=    0
 Petite list used in FoFCou.
 Requested convergence on RMS density matrix=1.00D-08 within 128 cycles.
 Requested convergence on MAX density matrix=1.00D-06.
 Requested convergence on             energy=1.00D-06.
 No special actions if energy rises.
 Integral accuracy reduced to 1.0D-05 until final iterations.
 Initial convergence to 1.0D-05 achieved.  Increase integral accuracy.
 SCF Done:  E(RwB97XD) =  -607.133076851     A.U. after   17 cycles
            NFock= 17  Conv=0.22D-08     -V/T= 2.0045

 **********************************************************************

            Population analysis using the SCF Density.

 **********************************************************************

 Orbital symmetries:
       Occupied  (A) (A) (A) (A) (A) (A) (A) (A) (A) (A) (A) (A)
                 (A) (A) (A) (A) (A) (A) (A) (A) (A) (A) (A) (A)
                 (A) (A) (A) (A) (A) (A) (A) (A) (A) (A) (A) (A)
                 (A) (A) (A) (A) (A) (A) (A) (A) (A) (A) (A) (A)
       Virtual   (A) (A) (A) (A) (A) (A) (A) (A) (A) (A) (A) (A)
                 (A) (A) (A) (A) (A) (A) (A) (A) (A) (A) (A) (A)
                 (A) (A) (A) (A) (A) (A) (A) (A) (A) (A) (A) (A)
                 (A) (A) (A) (A) (A) (A) (A) (A) (A) (A) (A) (A)
                 (A) (A) (A) (A) (A) (A) (A) (A) (A) (A) (A) (A)
                 (A) (A) (A) (A) (A) (A) (A) (A) (A) (A) (A) (A)
                 (A) (A) (A) (A) (A) (A) (A) (A) (A) (A) (A) (A)
                 (A) (A) (A) (A) (A) (A) (A) (A) (A) (A) (A) (A)
                 (A) (A) (A) (A) (A) (A) (A) (A) (A) (A) (A) (A)
                 (A) (A) (A) (A) (A) (A) (A) (A) (A) (A) (A) (A)
                 (A) (A) (A) (A) (A) (A) (A) (A) (A) (A) (A) (A)
                 (A) (A) (A) (A) (A) (A) (A) (A) (A) (A) (A) (A)
                 (A) (A) (A) (A) (A) (A) (A) (A) (A) (A) (A) (A)
                 (A) (A) (A) (A) (A) (A) (A) (A) (A) (A) (A) (A)
                 (A) (A) (A) (A) (A) (A) (A) (A) (A) (A) (A) (A)
                 (A) (A) (A) (A) (A) (A) (A) (A) (A) (A) (A) (A)
                 (A) (A) (A) (A) (A) (A) (A) (A) (A) (A) (A) (A)
                 (A) (A) (A) (A) (A) (A) (A) (A) (A) (A) (A) (A)
                 (A) (A) (A) (A) (A) (A) (A) (A) (A) (A) (A) (A)
                 (A) (A) (A) (A) (A) (A) (A) (A) (A) (A) (A) (A)
                 (A) (A) (A) (A) (A) (A) (A) (A) (A) (A) (A) (A)
                 (A) (A) (A) (A) (A) (A) (A) (A) (A) (A) (A) (A)
                 (A) (A) (A) (A) (A) (A) (A) (A) (A) (A) (A) (A)
                 (A) (A) (A) (A) (A) (A) (A) (A) (A) (A) (A) (A)
                 (A) (A) (A) (A) (A) (A) (A) (A) (A) (A) (A) (A)
                 (A) (A) (A) (A) (A) (A) (A) (A) (A) (A) (A) (A)
                 (A) (A) (A) (A) (A) (A) (A) (A) (A) (A) (A) (A)
                 (A) (A) (A) (A) (A) (A) (A) (A) (A) (A) (A) (A)
                 (A) (A) (A) (A) (A) (A) (A) (A) (A) (A) (A) (A)
                 (A) (A) (A) (A) (A) (A) (A) (A) (A) (A) (A) (A)
                 (A) (A) (A) (A) (A) (A) (A) (A) (A) (A) (A) (A)
                 (A) (A) (A) (A) (A) (A) (A) (A) (A) (A) (A) (A)
                 (A) (A) (A) (A) (A) (A) (A) (A) (A) (A) (A) (A)
                 (A) (A) (A) (A) (A) (A) (A) (A) (A) (A) (A) (A)
                 (A) (A) (A) (A) (A) (A)
 The electronic state is 1-A.
 Alpha  occ. eigenvalues --  -19.20420 -19.14474 -14.37146 -14.23887 -14.22571
 Alpha  occ. eigenvalues --  -14.22141 -10.32612 -10.25466 -10.19389 -10.16786
 Alpha  occ. eigenvalues --  -10.15856 -10.10004  -1.12370  -1.03768  -0.94109
 Alpha  occ. eigenvalues --   -0.85524  -0.80062  -0.77097  -0.73956  -0.71244
 Alpha  occ. eigenvalues --   -0.62974  -0.60593  -0.56963  -0.54592  -0.51429
 Alpha  occ. eigenvalues --   -0.48813  -0.47903  -0.45819  -0.45277  -0.43378
 Alpha  occ. eigenvalues --   -0.41506  -0.40406  -0.39059  -0.37155  -0.36287
 Alpha  occ. eigenvalues --   -0.35130  -0.33768  -0.32679  -0.31886  -0.31194
 Alpha  occ. eigenvalues --   -0.30512  -0.28703  -0.28218  -0.26192  -0.18645
 Alpha  occ. eigenvalues --   -0.15516  -0.11873  -0.03608
 Alpha virt. eigenvalues --    0.15792   0.18122   0.20610   0.22638   0.23398
 Alpha virt. eigenvalues --    0.25095   0.25761   0.26599   0.27622   0.28190
 Alpha virt. eigenvalues --    0.30001   0.30952   0.32239   0.32754   0.33100
 Alpha virt. eigenvalues --    0.35005   0.35185   0.35421   0.36258   0.37530
 Alpha virt. eigenvalues --    0.37814   0.39304   0.40679   0.42160   0.43945
 Alpha virt. eigenvalues --    0.43989   0.44786   0.45633   0.46344   0.47427
 Alpha virt. eigenvalues --    0.47650   0.48628   0.49468   0.50850   0.51410
 Alpha virt. eigenvalues --    0.52589   0.53503   0.53875   0.54821   0.55454
 Alpha virt. eigenvalues --    0.56136   0.56572   0.57423   0.57861   0.59371
 Alpha virt. eigenvalues --    0.59599   0.60765   0.61437   0.61898   0.62412
 Alpha virt. eigenvalues --    0.62765   0.63740   0.63964   0.64801   0.65268
 Alpha virt. eigenvalues --    0.65704   0.66154   0.66896   0.67724   0.69225
 Alpha virt. eigenvalues --    0.69507   0.70033   0.70897   0.71880   0.72066
 Alpha virt. eigenvalues --    0.72084   0.73373   0.73799   0.74475   0.75425
 Alpha virt. eigenvalues --    0.77239   0.78185   0.78713   0.79364   0.80684
 Alpha virt. eigenvalues --    0.82278   0.82441   0.83631   0.84470   0.85995
 Alpha virt. eigenvalues --    0.86131   0.88812   0.90542   0.91060   0.92768
 Alpha virt. eigenvalues --    0.94817   0.96366   0.97967   0.99517   1.00729
 Alpha virt. eigenvalues --    1.02759   1.04010   1.06088   1.06431   1.08122
 Alpha virt. eigenvalues --    1.09116   1.09994   1.10151   1.12923   1.15351
 Alpha virt. eigenvalues --    1.16951   1.17574   1.18766   1.21079   1.22733
 Alpha virt. eigenvalues --    1.23876   1.26236   1.28248   1.29967   1.30786
 Alpha virt. eigenvalues --    1.33300   1.34051   1.36398   1.38075   1.40220
 Alpha virt. eigenvalues --    1.41012   1.43113   1.46324   1.47288   1.48671
 Alpha virt. eigenvalues --    1.49448   1.50617   1.52379   1.52846   1.54016
 Alpha virt. eigenvalues --    1.54934   1.55865   1.57196   1.58212   1.60355
 Alpha virt. eigenvalues --    1.61380   1.63508   1.64820   1.65418   1.67002
 Alpha virt. eigenvalues --    1.67584   1.70140   1.70884   1.72555   1.73626
 Alpha virt. eigenvalues --    1.73874   1.75745   1.77773   1.78325   1.80142
 Alpha virt. eigenvalues --    1.80343   1.81919   1.82983   1.85190   1.86667
 Alpha virt. eigenvalues --    1.88755   1.89476   1.92912   1.94053   1.95318
 Alpha virt. eigenvalues --    1.95523   1.96848   1.98655   1.99335   2.00972
 Alpha virt. eigenvalues --    2.01628   2.04240   2.05277   2.06101   2.07960
 Alpha virt. eigenvalues --    2.09268   2.09957   2.10711   2.11474   2.13368
 Alpha virt. eigenvalues --    2.15556   2.15968   2.16601   2.18427   2.20635
 Alpha virt. eigenvalues --    2.21416   2.22175   2.22844   2.23554   2.25024
 Alpha virt. eigenvalues --    2.25949   2.26430   2.27097   2.28672   2.29307
 Alpha virt. eigenvalues --    2.31685   2.32811   2.33333   2.36855   2.37573
 Alpha virt. eigenvalues --    2.40124   2.40543   2.43666   2.44403   2.45344
 Alpha virt. eigenvalues --    2.46190   2.48344   2.49178   2.51696   2.51867
 Alpha virt. eigenvalues --    2.54779   2.56350   2.58227   2.58665   2.60008
 Alpha virt. eigenvalues --    2.60875   2.62340   2.65010   2.65622   2.67882
 Alpha virt. eigenvalues --    2.68706   2.68971   2.71136   2.72345   2.73934
 Alpha virt. eigenvalues --    2.74984   2.76154   2.77345   2.79134   2.80597
 Alpha virt. eigenvalues --    2.81814   2.82970   2.83759   2.84281   2.86133
 Alpha virt. eigenvalues --    2.88554   2.89448   2.90244   2.90688   2.91193
 Alpha virt. eigenvalues --    2.94259   2.94854   2.95715   2.96496   2.97316
 Alpha virt. eigenvalues --    2.99608   3.03830   3.05086   3.06578   3.07964
 Alpha virt. eigenvalues --    3.09152   3.10278   3.12213   3.13463   3.14649
 Alpha virt. eigenvalues --    3.17089   3.18898   3.21709   3.22602   3.25119
 Alpha virt. eigenvalues --    3.25874   3.26292   3.28771   3.29347   3.30301
 Alpha virt. eigenvalues --    3.31635   3.34010   3.38631   3.38849   3.40805
 Alpha virt. eigenvalues --    3.42127   3.42933   3.44407   3.45179   3.46315
 Alpha virt. eigenvalues --    3.46446   3.48813   3.49870   3.51088   3.51904
 Alpha virt. eigenvalues --    3.52499   3.53618   3.53948   3.56688   3.58743
 Alpha virt. eigenvalues --    3.60164   3.62206   3.63945   3.64824   3.65963
 Alpha virt. eigenvalues --    3.68082   3.69063   3.69574   3.70894   3.74039
 Alpha virt. eigenvalues --    3.75422   3.76504   3.77793   3.81402   3.82022
 Alpha virt. eigenvalues --    3.83539   3.85722   3.86415   3.88458   3.92359
 Alpha virt. eigenvalues --    3.93924   3.95093   3.99590   4.04142   4.04766
 Alpha virt. eigenvalues --    4.05978   4.08000   4.11087   4.12567   4.14018
 Alpha virt. eigenvalues --    4.14158   4.17996   4.20747   4.21058   4.21992
 Alpha virt. eigenvalues --    4.26349   4.31464   4.32714   4.36612   4.37877
 Alpha virt. eigenvalues --    4.40528   4.43762   4.48638   4.51440   4.53651
 Alpha virt. eigenvalues --    4.54384   4.56474   4.58725   4.59543   4.60685
 Alpha virt. eigenvalues --    4.64105   4.66204   4.70264   4.74346   4.74785
 Alpha virt. eigenvalues --    4.77473   4.81549   4.84612   4.88384   4.89861
 Alpha virt. eigenvalues --    4.91604   4.93539   4.97500   4.98667   4.99676
 Alpha virt. eigenvalues --    5.00974   5.01924   5.07506   5.09479   5.10226
 Alpha virt. eigenvalues --    5.11829   5.12851   5.16792   5.19140   5.20785
 Alpha virt. eigenvalues --    5.24834   5.26059   5.27253   5.30317   5.30642
 Alpha virt. eigenvalues --    5.34030   5.35008   5.35445   5.38113   5.38629
 Alpha virt. eigenvalues --    5.40908   5.42139   5.46060   5.46654   5.48785
 Alpha virt. eigenvalues --    5.49617   5.52975   5.56983   5.59697   5.61201
 Alpha virt. eigenvalues --    5.63847   5.68274   5.69968   5.72302   5.73057
 Alpha virt. eigenvalues --    5.74743   5.76361   5.80443   5.86306   5.87755
 Alpha virt. eigenvalues --    5.92800   5.94558   5.96626   6.01194   6.10710
 Alpha virt. eigenvalues --    6.16547   6.20304   6.25859   6.35952   6.36442
 Alpha virt. eigenvalues --    6.53631   6.58951   6.63521   6.67848   6.89957
 Alpha virt. eigenvalues --    6.90134   6.97030   7.00756   7.19117   7.30569
 Alpha virt. eigenvalues --    7.34111   7.46543  22.62020  22.71156  22.73367
 Alpha virt. eigenvalues --   22.76956  22.80088  23.51683  32.20083  32.22242
 Alpha virt. eigenvalues --   32.30835  32.74948  44.02112  44.08743
          Condensed to atoms (all electrons):
               1          2          3          4          5          6
     1  N    6.771181   0.368694   0.372490   0.056221   0.142728  -0.044794
     2  H    0.368694   0.441801  -0.028764  -0.001653  -0.033593   0.005965
     3  H    0.372490  -0.028764   0.442046  -0.000773  -0.019353  -0.010993
     4  H    0.056221  -0.001653  -0.000773   0.358833  -0.017516   0.001364
     5  C    0.142728  -0.033593  -0.019353  -0.017516   5.404310   0.404269
     6  H   -0.044794   0.005965  -0.010993   0.001364   0.404269   0.578483
     7  C   -0.050510  -0.005895  -0.002924   0.003811   0.223597  -0.035735
     8  H    0.008511   0.000338  -0.000453  -0.000234  -0.044729  -0.003122
     9  H   -0.010421   0.004961  -0.000162  -0.000099  -0.025018   0.008549
    10  C    0.010132  -0.000166   0.001700  -0.000245  -0.041447  -0.003582
    11  H    0.017688   0.003247  -0.000417   0.000006  -0.024012  -0.000813
    12  H   -0.001743   0.000351   0.000413  -0.000046   0.006018   0.003026
    13  C    0.001900  -0.000502   0.000176   0.000005  -0.014450   0.000730
    14  H   -0.000106   0.000051  -0.000006   0.000000   0.001675  -0.000013
    15  H    0.000066  -0.000004   0.000048  -0.000001   0.002224  -0.000246
    16  N    0.000117   0.000006   0.000008  -0.000000  -0.000981  -0.000071
    17  H   -0.000183   0.000110   0.000004  -0.000001   0.001144  -0.000057
    18  C    0.000017  -0.000009   0.000000  -0.000000  -0.000158   0.000004
    19  N   -0.000000   0.000002   0.000000   0.000000   0.000025  -0.000001
    20  H   -0.000000   0.000000  -0.000000   0.000000   0.000006   0.000000
    21  H   -0.000001   0.000005   0.000000  -0.000000   0.000027  -0.000001
    22  N   -0.000000   0.000000   0.000000  -0.000000  -0.000002  -0.000000
    23  H   -0.000000  -0.000000   0.000000   0.000000   0.000001  -0.000000
    24  H   -0.000000   0.000000   0.000000  -0.000000   0.000007  -0.000000
    25  C   -0.006141  -0.000624   0.000446  -0.034421   0.233468  -0.014164
    26  O   -0.045386   0.000868   0.000307   0.288908  -0.123788   0.001699
    27  O    0.005318  -0.000022  -0.000214   0.005001  -0.131376   0.002426
               7          8          9         10         11         12
     1  N   -0.050510   0.008511  -0.010421   0.010132   0.017688  -0.001743
     2  H   -0.005895   0.000338   0.004961  -0.000166   0.003247   0.000351
     3  H   -0.002924  -0.000453  -0.000162   0.001700  -0.000417   0.000413
     4  H    0.003811  -0.000234  -0.000099  -0.000245   0.000006  -0.000046
     5  C    0.223597  -0.044729  -0.025018  -0.041447  -0.024012   0.006018
     6  H   -0.035735  -0.003122   0.008549  -0.003582  -0.000813   0.003026
     7  C    5.319764   0.396145   0.389674   0.143044  -0.057238  -0.019890
     8  H    0.396145   0.532375  -0.016367  -0.017413   0.007853  -0.006892
     9  H    0.389674  -0.016367   0.599617  -0.058349  -0.005984   0.008362
    10  C    0.143044  -0.017413  -0.058349   5.298242   0.411712   0.355373
    11  H   -0.057238   0.007853  -0.005984   0.411712   0.667182  -0.042526
    12  H   -0.019890  -0.006892   0.008362   0.355373  -0.042526   0.625064
    13  C   -0.057917   0.005328   0.006317   0.146278  -0.032445  -0.025462
    14  H   -0.027719   0.003433  -0.001393   0.045101   0.012325  -0.014041
    15  H    0.049597  -0.002753   0.004829  -0.095612  -0.014868   0.018671
    16  N    0.011344   0.000132   0.000222  -0.098819  -0.005383   0.018781
    17  H   -0.002427  -0.000156  -0.000383   0.038817   0.019164  -0.000415
    18  C   -0.003113  -0.000089   0.000172  -0.006181  -0.001826  -0.000128
    19  N    0.001567  -0.000005  -0.000141   0.006624  -0.000284   0.000201
    20  H   -0.000151   0.000013  -0.000042   0.001463   0.000056  -0.000130
    21  H    0.000050  -0.000015  -0.000055   0.005584   0.000981   0.000084
    22  N   -0.000112  -0.000000  -0.000001  -0.001159  -0.000042  -0.000131
    23  H    0.000075  -0.000002   0.000001  -0.000360  -0.000076   0.000369
    24  H    0.000001  -0.000003  -0.000001   0.002442   0.000312   0.000225
    25  C   -0.018199  -0.002261  -0.002201  -0.004085  -0.000423   0.000694
    26  O   -0.001461   0.000947   0.002266  -0.000662  -0.000009   0.000012
    27  O    0.011581   0.012346   0.000308  -0.001351  -0.000079   0.000025
              13         14         15         16         17         18
     1  N    0.001900  -0.000106   0.000066   0.000117  -0.000183   0.000017
     2  H   -0.000502   0.000051  -0.000004   0.000006   0.000110  -0.000009
     3  H    0.000176  -0.000006   0.000048   0.000008   0.000004   0.000000
     4  H    0.000005   0.000000  -0.000001  -0.000000  -0.000001  -0.000000
     5  C   -0.014450   0.001675   0.002224  -0.000981   0.001144  -0.000158
     6  H    0.000730  -0.000013  -0.000246  -0.000071  -0.000057   0.000004
     7  C   -0.057917  -0.027719   0.049597   0.011344  -0.002427  -0.003113
     8  H    0.005328   0.003433  -0.002753   0.000132  -0.000156  -0.000089
     9  H    0.006317  -0.001393   0.004829   0.000222  -0.000383   0.000172
    10  C    0.146278   0.045101  -0.095612  -0.098819   0.038817  -0.006181
    11  H   -0.032445   0.012325  -0.014868  -0.005383   0.019164  -0.001826
    12  H   -0.025462  -0.014041   0.018671   0.018781  -0.000415  -0.000128
    13  C    5.206347   0.281952   0.344195   0.437498  -0.165926  -0.068402
    14  H    0.281952   0.677924  -0.070145  -0.055698   0.043833   0.035620
    15  H    0.344195  -0.070145   0.866356  -0.103644  -0.005605  -0.034177
    16  N    0.437498  -0.055698  -0.103644   6.818607   0.147353   0.519171
    17  H   -0.165926   0.043833  -0.005605   0.147353   1.008387  -0.279309
    18  C   -0.068402   0.035620  -0.034177   0.519171  -0.279309   5.698927
    19  N    0.015368  -0.002891   0.040811  -0.159873  -0.016552   0.351025
    20  H    0.005497   0.000835  -0.002534   0.006690  -0.000844  -0.075079
    21  H   -0.016079   0.008369   0.006770  -0.044226   0.127631  -0.272638
    22  N    0.006884   0.003264  -0.000268  -0.176814   0.026049   0.410558
    23  H    0.000974  -0.000533   0.000533   0.012881   0.001633  -0.075287
    24  H   -0.007835   0.002697   0.001202  -0.045035   0.103198  -0.248170
    25  C   -0.000306  -0.000138   0.000417  -0.000002   0.000008  -0.000003
    26  O    0.000004  -0.000001  -0.000001  -0.000000  -0.000000   0.000000
    27  O    0.000197  -0.000029  -0.000004  -0.000000   0.000000   0.000000
              19         20         21         22         23         24
     1  N   -0.000000  -0.000000  -0.000001  -0.000000  -0.000000  -0.000000
     2  H    0.000002   0.000000   0.000005   0.000000  -0.000000   0.000000
     3  H    0.000000  -0.000000   0.000000   0.000000   0.000000   0.000000
     4  H    0.000000   0.000000  -0.000000  -0.000000   0.000000  -0.000000
     5  C    0.000025   0.000006   0.000027  -0.000002   0.000001   0.000007
     6  H   -0.000001   0.000000  -0.000001  -0.000000  -0.000000  -0.000000
     7  C    0.001567  -0.000151   0.000050  -0.000112   0.000075   0.000001
     8  H   -0.000005   0.000013  -0.000015  -0.000000  -0.000002  -0.000003
     9  H   -0.000141  -0.000042  -0.000055  -0.000001   0.000001  -0.000001
    10  C    0.006624   0.001463   0.005584  -0.001159  -0.000360   0.002442
    11  H   -0.000284   0.000056   0.000981  -0.000042  -0.000076   0.000312
    12  H    0.000201  -0.000130   0.000084  -0.000131   0.000369   0.000225
    13  C    0.015368   0.005497  -0.016079   0.006884   0.000974  -0.007835
    14  H   -0.002891   0.000835   0.008369   0.003264  -0.000533   0.002697
    15  H    0.040811  -0.002534   0.006770  -0.000268   0.000533   0.001202
    16  N   -0.159873   0.006690  -0.044226  -0.176814   0.012881  -0.045035
    17  H   -0.016552  -0.000844   0.127631   0.026049   0.001633   0.103198
    18  C    0.351025  -0.075079  -0.272638   0.410558  -0.075287  -0.248170
    19  N    6.736818   0.391422   0.237227  -0.093040   0.013010  -0.025876
    20  H    0.391422   0.551429  -0.057088   0.009912  -0.001457  -0.001793
    21  H    0.237227  -0.057088   0.906582  -0.008307  -0.000231   0.094222
    22  N   -0.093040   0.009912  -0.008307   6.689363   0.367438   0.273108
    23  H    0.013010  -0.001457  -0.000231   0.367438   0.556273  -0.038466
    24  H   -0.025876  -0.001793   0.094222   0.273108  -0.038466   0.847422
    25  C    0.000000  -0.000000   0.000000  -0.000000   0.000000   0.000000
    26  O   -0.000000  -0.000000   0.000000  -0.000000  -0.000000   0.000000
    27  O    0.000000  -0.000000   0.000000   0.000000   0.000000   0.000000
              25         26         27
     1  N   -0.006141  -0.045386   0.005318
     2  H   -0.000624   0.000868  -0.000022
     3  H    0.000446   0.000307  -0.000214
     4  H   -0.034421   0.288908   0.005001
     5  C    0.233468  -0.123788  -0.131376
     6  H   -0.014164   0.001699   0.002426
     7  C   -0.018199  -0.001461   0.011581
     8  H   -0.002261   0.000947   0.012346
     9  H   -0.002201   0.002266   0.000308
    10  C   -0.004085  -0.000662  -0.001351
    11  H   -0.000423  -0.000009  -0.000079
    12  H    0.000694   0.000012   0.000025
    13  C   -0.000306   0.000004   0.000197
    14  H   -0.000138  -0.000001  -0.000029
    15  H    0.000417  -0.000001  -0.000004
    16  N   -0.000002  -0.000000  -0.000000
    17  H    0.000008  -0.000000   0.000000
    18  C   -0.000003   0.000000   0.000000
    19  N    0.000000  -0.000000   0.000000
    20  H   -0.000000  -0.000000  -0.000000
    21  H    0.000000   0.000000   0.000000
    22  N   -0.000000  -0.000000   0.000000
    23  H    0.000000  -0.000000   0.000000
    24  H    0.000000   0.000000   0.000000
    25  C    4.436035   0.392308   0.700653
    26  O    0.392308   7.953855  -0.085405
    27  O    0.700653  -0.085405   7.840555
 Mulliken charges:
               1
     1  N   -0.595777
     2  H    0.244831
     3  H    0.246421
     4  H    0.340841
     5  C    0.056926
     6  H    0.107078
     7  C   -0.266960
     8  H    0.127074
     9  H    0.095338
    10  C   -0.137079
    11  H    0.045901
    12  H    0.073735
    13  C   -0.070328
    14  H    0.055632
    15  H   -0.005854
    16  N   -0.282262
    17  H   -0.045474
    18  C    0.049074
    19  N   -0.495438
    20  H    0.171794
    21  H    0.011108
    22  N   -0.506699
    23  H    0.163226
    24  H    0.042345
    25  C    0.318940
    26  O   -0.384461
    27  O   -0.359929
 Sum of Mulliken charges =  -1.00000
 Mulliken charges with hydrogens summed into heavy atoms:
               1
     1  N   -0.104525
     5  C    0.164004
     7  C   -0.044548
    10  C   -0.017443
    13  C   -0.020550
    16  N   -0.327736
    18  C    0.049074
    19  N   -0.312536
    22  N   -0.301129
    25  C    0.318940
    26  O   -0.043620
    27  O   -0.359929
 Electronic spatial extent (au):  <R**2>=           4290.9561
 Charge=             -1.0000 electrons
 Dipole moment (field-independent basis, Debye):
    X=            -14.0996    Y=              5.7933    Z=              0.8558  Tot=             15.2673
 Quadrupole moment (field-independent basis, Debye-Ang):
   XX=           -197.7468   YY=            -83.4515   ZZ=            -78.5961
   XY=             -2.8573   XZ=              0.4251   YZ=             -1.6232
 Traceless Quadrupole moment (field-independent basis, Debye-Ang):
   XX=            -77.8153   YY=             36.4800   ZZ=             41.3353
   XY=             -2.8573   XZ=              0.4251   YZ=             -1.6232
 Octapole moment (field-independent basis, Debye-Ang**2):
  XXX=           -355.6538  YYY=             21.0832  ZZZ=             -3.1830  XYY=            -19.7180
  XXY=             94.1231  XXZ=             -8.5381  XZZ=            -33.8011  YZZ=              5.0245
  YYZ=              3.7268  XYZ=              4.1999
 Hexadecapole moment (field-independent basis, Debye-Ang**3):
 XXXX=          -8079.6507 YYYY=           -422.5164 ZZZZ=           -266.9536 XXXY=             52.8051
 XXXZ=            -26.1896 YYYX=            -25.4272 YYYZ=            -10.4109 ZZZX=            -33.9128
 ZZZY=             -0.8238 XXYY=          -1042.3223 XXZZ=           -948.2087 YYZZ=           -113.7938
 XXYZ=            -13.1393 YYXZ=             -7.0937 ZZXY=              3.5548
 N-N= 7.113440422545D+02 E-N=-2.854490720189D+03  KE= 6.044168516989D+02
 Unable to Open any file for archive entry.
 1\1\GINC-WATER\SP\RwB97XD\def2TZVP\C6H15N4O2(1-)\DAYALYZ\10-Jun-2025\0
 \\# wB97xD/Def2TZVP SCF(Tight) Int(Grid=299974)\\Displacement_-0.01\\-
 1,1\N,0,-2.449391,1.662106,0.312579\H,0,-1.892601,1.661727,1.158668\H,
 0,-2.080546,2.396181,-0.273303\H,0,-4.177396,1.141286,0.662011\C,0,-2.
 348291,0.354291,-0.351331\H,0,-2.34121,0.525036,-1.432399\C,0,-1.09445
 4,-0.433998,0.018947\H,0,-1.158799,-1.420651,-0.442292\H,0,-1.094388,-
 0.600813,1.103594\C,0,0.189472,0.269027,-0.401511\H,0,0.226249,1.27477
 5,0.033698\H,0,0.202187,0.403801,-1.488111\C,0,1.454987,-0.475381,0.01
 0983\H,0,1.500154,-1.448564,-0.487422\H,0,1.387451,-0.691328,1.097108\
 N,0,2.637813,0.252447,-0.370362\H,0,2.663477,1.14038,0.184721\C,0,3.91
 12,-0.45352,-0.159339\N,0,4.228964,-0.561812,1.254282\H,0,3.544917,-1.
 145561,1.717652\H,0,4.130188,0.379081,1.709839\N,0,4.954303,0.390004,-
 0.713869\H,0,4.680741,0.600868,-1.666312\H,0,4.937528,1.311549,-0.2174
 21\C,0,-3.634014,-0.44553,-0.088747\O,0,-4.586522,0.257947,0.524834\O,
 0,-3.789113,-1.585375,-0.425703\\Version=ES64L-G16RevC.01\State=1-A\HF
 =-607.1330769\RMSD=2.246e-09\Dipole=-5.5471497,2.279245,0.3374375\Quad
 rupole=-57.8538693,27.1229411,30.7309282,-2.1226486,0.3134771,-1.20817
 86\PG=C01 [X(C6H15N4O2)]\\@
 The archive entry for this job was punched.


 SUCCESS IS NEVER CERTAIN,
 FAILURE IS NEVER FINAL.
 Job cpu time:       0 days  0 hours 49 minutes 57.2 seconds.
 Elapsed time:       0 days  0 hours 50 minutes  3.9 seconds.
 File lengths (MBytes):  RWF=    118 Int=      0 D2E=      0 Chk=     13 Scr=      1
 Normal termination of Gaussian 16 at Tue Jun 10 20:25:31 2025.
