 Entering Gaussian System, Link 0=g16
 Initial command:
 /opt/gaussian/g16/l1.exe "/scratch/Gau-3954830.inp" -scrdir="/scratch/"
 Entering Link 1 = /opt/gaussian/g16/l1.exe PID=   3954831.
  
 Copyright (c) 1988-2019, Gaussian, Inc.  All Rights Reserved.
  
 This is part of the Gaussian(R) 16 program.  It is based on
 the Gaussian(R) 09 system (copyright 2009, Gaussian, Inc.),
 the Gaussian(R) 03 system (copyright 2003, Gaussian, Inc.),
 the Gaussian(R) 98 system (copyright 1998, Gaussian, Inc.),
 the Gaussian(R) 94 system (copyright 1995, Gaussian, Inc.),
 the Gaussian 92(TM) system (copyright 1992, Gaussian, Inc.),
 the Gaussian 90(TM) system (copyright 1990, Gaussian, Inc.),
 the Gaussian 88(TM) system (copyright 1988, Gaussian, Inc.),
 the Gaussian 86(TM) system (copyright 1986, Carnegie Mellon
 University), and the Gaussian 82(TM) system (copyright 1983,
 Carnegie Mellon University). Gaussian is a federally registered
 trademark of Gaussian, Inc.
  
 This software contains proprietary and confidential information,
 including trade secrets, belonging to Gaussian, Inc.
  
 This software is provided under written license and may be
 used, copied, transmitted, or stored only in accord with that
 written license.
  
 The following legend is applicable only to US Government
 contracts under FAR:
  
                    RESTRICTED RIGHTS LEGEND
  
 Use, reproduction and disclosure by the US Government is
 subject to restrictions as set forth in subparagraphs (a)
 and (c) of the Commercial Computer Software - Restricted
 Rights clause in FAR 52.227-19.
  
 Gaussian, Inc.
 340 Quinnipiac St., Bldg. 40, Wallingford CT 06492
  
  
 ---------------------------------------------------------------
 Warning -- This program may not be used in any manner that
 competes with the business of Gaussian, Inc. or will provide
 assistance to any competitor of Gaussian, Inc.  The licensee
 of this program is prohibited from giving any competitor of
 Gaussian, Inc. access to this program.  By using this program,
 the user acknowledges that Gaussian, Inc. is engaged in the
 business of creating and licensing software in the field of
 computational chemistry and represents and warrants to the
 licensee that it is not a competitor of Gaussian, Inc. and that
 it will not use this program in any manner prohibited above.
 ---------------------------------------------------------------
  

 Cite this work as:
 Gaussian 16, Revision C.01,
 M. J. Frisch, G. W. Trucks, H. B. Schlegel, G. E. Scuseria, 
 M. A. Robb, J. R. Cheeseman, G. Scalmani, V. Barone, 
 G. A. Petersson, H. Nakatsuji, X. Li, M. Caricato, A. V. Marenich, 
 J. Bloino, B. G. Janesko, R. Gomperts, B. Mennucci, H. P. Hratchian, 
 J. V. Ortiz, A. F. Izmaylov, J. L. Sonnenberg, D. Williams-Young, 
 F. Ding, F. Lipparini, F. Egidi, J. Goings, B. Peng, A. Petrone, 
 T. Henderson, D. Ranasinghe, V. G. Zakrzewski, J. Gao, N. Rega, 
 G. Zheng, W. Liang, M. Hada, M. Ehara, K. Toyota, R. Fukuda, 
 J. Hasegawa, M. Ishida, T. Nakajima, Y. Honda, O. Kitao, H. Nakai, 
 T. Vreven, K. Throssell, J. A. Montgomery, Jr., J. E. Peralta, 
 F. Ogliaro, M. J. Bearpark, J. J. Heyd, E. N. Brothers, K. N. Kudin, 
 V. N. Staroverov, T. A. Keith, R. Kobayashi, J. Normand, 
 K. Raghavachari, A. P. Rendell, J. C. Burant, S. S. Iyengar, 
 J. Tomasi, M. Cossi, J. M. Millam, M. Klene, C. Adamo, R. Cammi, 
 J. W. Ochterski, R. L. Martin, K. Morokuma, O. Farkas, 
 J. B. Foresman, and D. J. Fox, Gaussian, Inc., Wallingford CT, 2019.
 
 ******************************************
 Gaussian 16:  ES64L-G16RevC.01  3-Jul-2019
                10-Jun-2025 
 ******************************************
 ---------------------------------------------
 # wB97xD/Def2TZVP SCF(Tight) Int(Grid=299974)
 ---------------------------------------------
 1/38=1,172=1/1;
 2/12=2,17=6,18=5,40=1/2;
 3/5=44,7=101,11=2,25=1,30=1,74=-58,75=299974/1,2,3;
 4//1;
 5/5=2,32=2,38=5/2;
 6/7=2,8=2,9=2,10=2,28=1/1;
 99/5=1,9=1/99;
 ------------------
 Displacement_-0.07
 ------------------
 Symbolic Z-matrix:
 Charge = -1 Multiplicity = 1
 N                    -2.44939   1.66211   0.31258 
 H                    -1.8926    1.66173   1.15867 
 H                    -2.08055   2.39618  -0.2733 
 H                    -4.1774    1.14129   0.66201 
 C                    -2.34829   0.35429  -0.35133 
 H                    -2.34121   0.52504  -1.4324 
 C                    -1.09445  -0.434     0.01895 
 H                    -1.1588   -1.42065  -0.44229 
 H                    -1.09439  -0.60081   1.10359 
 C                     0.18947   0.26903  -0.40151 
 H                     0.22625   1.27477   0.0337 
 H                     0.20219   0.4038   -1.48811 
 C                     1.45499  -0.47538   0.01098 
 H                     1.50015  -1.44796  -0.48802 
 H                     1.38805  -0.69073   1.09711 
 N                     2.63781   0.25245  -0.37036 
 H                     2.66348   1.14038   0.18412 
 C                     3.9118   -0.45352  -0.15994 
 N                     4.22956  -0.56241   1.25128 
 H                     3.54252  -1.12396   1.73985 
 H                     4.11519   0.36708   1.73624 
 N                     4.9549    0.3924   -0.71507 
 H                     4.67594   0.57387  -1.67171 
 H                     4.93573   1.29655  -0.19342 
 C                    -3.63401  -0.44553  -0.08875 
 O                    -4.58652   0.25795   0.52483 
 O                    -3.78911  -1.58538  -0.4257 
 
                          Input orientation:                          
 ---------------------------------------------------------------------
 Center     Atomic      Atomic             Coordinates (Angstroms)
 Number     Number       Type             X           Y           Z
 ---------------------------------------------------------------------
      1          7           0       -2.449391    1.662106    0.312579
      2          1           0       -1.892601    1.661727    1.158668
      3          1           0       -2.080546    2.396181   -0.273303
      4          1           0       -4.177396    1.141286    0.662011
      5          6           0       -2.348291    0.354291   -0.351331
      6          1           0       -2.341210    0.525036   -1.432399
      7          6           0       -1.094454   -0.433998    0.018947
      8          1           0       -1.158799   -1.420651   -0.442292
      9          1           0       -1.094388   -0.600813    1.103594
     10          6           0        0.189472    0.269027   -0.401511
     11          1           0        0.226249    1.274775    0.033698
     12          1           0        0.202187    0.403801   -1.488111
     13          6           0        1.454987   -0.475381    0.010983
     14          1           0        1.500154   -1.447964   -0.488022
     15          1           0        1.388051   -0.690728    1.097108
     16          7           0        2.637813    0.252447   -0.370362
     17          1           0        2.663477    1.140380    0.184121
     18          6           0        3.911800   -0.453520   -0.159939
     19          7           0        4.229564   -0.562412    1.251282
     20          1           0        3.542517   -1.123961    1.739852
     21          1           0        4.115188    0.367081    1.736239
     22          7           0        4.954903    0.392404   -0.715069
     23          1           0        4.675941    0.573868   -1.671712
     24          1           0        4.935728    1.296549   -0.193421
     25          6           0       -3.634014   -0.445530   -0.088747
     26          8           0       -4.586522    0.257947    0.524834
     27          8           0       -3.789113   -1.585375   -0.425703
 ---------------------------------------------------------------------
                    Distance matrix (angstroms):
                    1          2          3          4          5
     1  N    0.000000
     2  H    1.012858   0.000000
     3  H    1.009044   1.620274   0.000000
     4  H    1.838303   2.395374   2.616554   0.000000
     5  C    1.470162   2.048692   2.060847   2.234244   0.000000
     6  H    2.085565   2.864777   2.216446   2.852700   1.094492
     7  C    2.513111   2.515565   3.011262   3.521304   1.526634
     8  H    3.426200   3.550013   3.930188   4.110345   2.138594
     9  H    2.753641   2.399847   3.442430   3.568591   2.145065
    10  C    3.068255   2.951068   3.113552   4.578368   2.539691
    11  H    2.717876   2.429982   2.583235   4.450246   2.761122
    12  H    3.443353   3.602215   3.264385   4.934334   2.792787
    13  C    4.461387   4.134097   4.563626   5.895862   3.909546
    14  H    5.090423   4.888001   5.257848   6.345184   4.251745
    15  H    4.569166   4.037389   4.841301   5.875354   4.141291
    16  N    5.322893   4.984842   5.183428   6.950029   4.987180
    17  H    5.141023   4.688218   4.928694   6.857545   5.101222
    18  C    6.720409   6.316966   6.636404   8.285777   6.314897
    19  N    7.101977   6.514313   7.134082   8.598070   6.832049
    20  H    6.760343   6.135009   6.932751   8.117274   6.423387
    21  H    6.840877   6.172781   6.822216   8.397637   6.792251
    22  N    7.582333   7.211822   7.328562   9.265854   7.312346
    23  H    7.476097   7.234655   7.136280   9.173320   7.150626
    24  H    7.411454   6.970479   7.102371   9.154502   7.346409
    25  C    2.450821   3.004845   3.243863   1.837631   1.536798
    26  O    2.565939   3.103152   3.389540   0.983102   2.405541
    27  O    3.589714   4.080522   4.335345   2.961176   2.417396
                    6          7          8          9         10
     6  H    0.000000
     7  C    2.140222   0.000000
     8  H    2.482762   1.091039   0.000000
     9  H    3.041934   1.097400   1.751013   0.000000
    10  C    2.744562   1.522989   2.162061   2.161078   0.000000
    11  H    3.050147   2.159717   3.067612   2.531124   1.096489
    12  H    2.546894   2.157408   2.504924   3.067131   1.095000
    13  C    4.182738   2.549789   2.816180   2.776481   1.525065
    14  H    4.420481   2.831455   2.659486   3.159518   2.161812
    15  H    4.667320   2.718671   3.064145   2.484075   2.145596
    16  N    5.098323   3.814785   4.149541   4.102429   2.448595
    17  H    5.295156   4.077744   4.643390   4.242491   2.687549
    18  C    6.455762   5.009487   5.169723   5.165281   3.799494
    19  N    7.180512   5.466288   5.713075   5.326138   4.443575
    20  H    6.884810   4.993903   5.191546   4.709501   4.215301
    21  H    7.193768   5.543572   5.979709   5.336360   4.471111
    22  N    7.332491   6.149507   6.382705   6.394368   4.777329
    23  H    7.021400   6.096850   6.287589   6.509907   4.672766
    24  H    7.421868   6.277180   6.677453   6.453257   4.860663
    25  C    2.102080   2.541869   2.683756   2.809891   3.902238
    26  O    2.990572   3.595726   3.937297   3.642449   4.865014
    27  O    2.750217   2.963877   2.635519   3.251101   4.389593
                   11         12         13         14         15
    11  H    0.000000
    12  H    1.753590   0.000000
    13  C    2.138541   2.142371   0.000000
    14  H    3.050956   2.472636   1.094058   0.000000
    15  H    2.518695   3.047560   1.109289   1.760287   0.000000
    16  N    2.650294   2.684128   1.440220   2.049270   2.145915
    17  H    2.445561   3.065429   2.025119   2.916268   2.411061
    18  C    4.075265   4.032402   2.462848   2.629181   2.829442
    19  N    4.569934   4.965643   3.040427   3.355452   2.848584
    20  H    4.434245   4.889950   2.787010   3.039679   2.289658
    21  H    4.341244   5.070440   3.280689   3.883314   2.994115
    22  N    4.868203   4.815188   3.678262   3.920943   4.144827
    23  H    4.816581   4.480748   3.782450   3.946460   4.480601
    24  H    4.715003   4.987949   3.911148   4.407075   4.266233
    25  C    4.228010   4.170854   5.090066   5.246330   5.165996
    26  O    4.943472   5.196629   6.107507   6.401846   6.076430
    27  O    4.951226   4.584322   5.378045   5.291419   5.470135
                   16         17         18         19         20
    16  N    0.000000
    17  H    1.047156   0.000000
    18  C    1.471635   2.053583   0.000000
    19  N    2.414000   2.547737   1.450647   0.000000
    20  H    2.676937   2.884484   2.048186   1.012952   0.000000
    21  H    2.575567   2.261532   2.076113   1.054620   1.597239
    22  N    2.346767   2.572673   1.453210   2.303112   3.212606
    23  H    2.439424   2.795543   1.981135   3.167693   3.975681
    24  H    2.530192   2.308690   2.027878   2.457961   3.396682
    25  C    6.316826   6.499843   7.546154   7.977794   7.436843
    26  O    7.279589   7.311447   8.555500   8.883923   8.334699
    27  O    6.684761   7.031184   7.788183   8.255781   7.658677
                   21         22         23         24         25
    21  H    0.000000
    22  N    2.591269   0.000000
    23  H    3.459962   1.012875   0.000000
    24  H    2.293640   1.044013   1.665864   0.000000
    25  C    8.002565   8.652393   8.520581   8.745643   0.000000
    26  O    8.786306   9.622590   9.524591   9.605614   1.333654
    27  O    8.424016   8.969568   8.824512   9.191425   1.198683
                   26         27
    26  O    0.000000
    27  O    2.221985   0.000000
 Stoichiometry    C6H15N4O2(1-)
 Framework group  C1[X(C6H15N4O2)]
 Deg. of freedom    75
 Full point group                 C1      NOp   1
 Largest Abelian subgroup         C1      NOp   1
 Largest concise Abelian subgroup C1      NOp   1
                         Standard orientation:                         
 ---------------------------------------------------------------------
 Center     Atomic      Atomic             Coordinates (Angstroms)
 Number     Number       Type             X           Y           Z
 ---------------------------------------------------------------------
      1          7           0       -2.449448    1.662792    0.308163
      2          1           0       -1.892542    1.664705    1.154174
      3          1           0       -2.080790    2.395386   -0.279686
      4          1           0       -4.177330    1.142638    0.659193
      5          6           0       -2.348250    0.353260   -0.352340
      6          1           0       -2.341342    0.521180   -1.433851
      7          6           0       -1.094249   -0.433877    0.019826
      8          1           0       -1.158514   -1.421742   -0.438823
      9          1           0       -1.094010   -0.597856    1.104905
     10          6           0        0.189518    0.268231   -0.402645
     11          1           0        0.226209    1.275119    0.029928
     12          1           0        0.202065    0.400166   -1.489595
     13          6           0        1.455197   -0.474914    0.011620
     14          1           0        1.500436   -1.448791   -0.484847
     15          1           0        1.388441   -0.687430    1.098314
     16          7           0        2.637866    0.252086   -0.371789
     17          1           0        2.663477    1.141469    0.180368
     18          6           0        3.911984   -0.453145   -0.159696
     19          7           0        4.229956   -0.558302    1.251762
     20          1           0        3.543057   -1.118671    1.741892
     21          1           0        4.115513    0.372439    1.734303
     22          7           0        4.954888    0.391475   -0.717178
     23          1           0        4.675769    0.570397   -1.674254
     24          1           0        4.935654    1.296978   -0.197893
     25          6           0       -3.633822   -0.446057   -0.087489
     26          8           0       -4.586347    0.258885    0.524382
     27          8           0       -3.788802   -1.586801   -0.421443
 ---------------------------------------------------------------------
 Rotational constants (GHZ):           2.7669538           0.2562007           0.2486689
 Standard basis: def2TZVP (5D, 7F)
 There are   522 symmetry adapted cartesian basis functions of A   symmetry.
 There are   462 symmetry adapted basis functions of A   symmetry.
   462 basis functions,   732 primitive gaussians,   522 cartesian basis functions
    48 alpha electrons       48 beta electrons
       nuclear repulsion energy       711.3569792186 Hartrees.
 NAtoms=   27 NActive=   27 NUniq=   27 SFac= 1.00D+00 NAtFMM=   60 NAOKFM=F Big=F
 Integral buffers will be    131072 words long.
 Raffenetti 2 integral format.
 Two-electron integral symmetry is turned on.
 Nuclear repulsion after empirical dispersion term =      711.3394660466 Hartrees.
 One-electron integrals computed using PRISM.
   1 Symmetry operations used in ECPInt.
 ECPInt:  NShTT=   18528 NPrTT=   54924 LenC2=   16268 LenP2D=   36015.
 LDataN:  DoStor=T MaxTD1= 6 Len=  172
 NBasis=   462 RedAO= T EigKep=  7.72D-05  NBF=   462
 NBsUse=   462 1.00D-06 EigRej= -1.00D+00 NBFU=   462
 ExpMin= 9.52D-02 ExpMax= 2.70D+04 ExpMxC= 9.22D+02 IAcc=4 IRadAn=    299974 AccDes= 0.00D+00
 Harris functional with IExCor= 4639 and IRadAn=  299974 diagonalized for initial guess.
 HarFok:  IExCor= 4639 AccDes= 0.00D+00 IRadAn=    299974 IDoV= 1 UseB2=F ITyADJ=14
 ICtDFT=  3500011 ScaDFX=  1.000000  1.000000  1.000000  1.000000
 FoFCou: FMM=F IPFlag=           0 FMFlag=      100000 FMFlg1=           0
         NFxFlg=           0 DoJE=T BraDBF=F KetDBF=T FulRan=T
         wScrn=  0.000000 ICntrl=       500 IOpCl=  0 I1Cent=   200000004 NGrid=           0
         NMat0=    1 NMatS0=      1 NMatT0=    0 NMatD0=    1 NMtDS0=    0 NMtDT0=    0
 Petite list used in FoFCou.
 Requested convergence on RMS density matrix=1.00D-08 within 128 cycles.
 Requested convergence on MAX density matrix=1.00D-06.
 Requested convergence on             energy=1.00D-06.
 No special actions if energy rises.
 Integral accuracy reduced to 1.0D-05 until final iterations.
 Initial convergence to 1.0D-05 achieved.  Increase integral accuracy.
 SCF Done:  E(RwB97XD) =  -607.132190555     A.U. after   17 cycles
            NFock= 17  Conv=0.22D-08     -V/T= 2.0045

 **********************************************************************

            Population analysis using the SCF Density.

 **********************************************************************

 Orbital symmetries:
       Occupied  (A) (A) (A) (A) (A) (A) (A) (A) (A) (A) (A) (A)
                 (A) (A) (A) (A) (A) (A) (A) (A) (A) (A) (A) (A)
                 (A) (A) (A) (A) (A) (A) (A) (A) (A) (A) (A) (A)
                 (A) (A) (A) (A) (A) (A) (A) (A) (A) (A) (A) (A)
       Virtual   (A) (A) (A) (A) (A) (A) (A) (A) (A) (A) (A) (A)
                 (A) (A) (A) (A) (A) (A) (A) (A) (A) (A) (A) (A)
                 (A) (A) (A) (A) (A) (A) (A) (A) (A) (A) (A) (A)
                 (A) (A) (A) (A) (A) (A) (A) (A) (A) (A) (A) (A)
                 (A) (A) (A) (A) (A) (A) (A) (A) (A) (A) (A) (A)
                 (A) (A) (A) (A) (A) (A) (A) (A) (A) (A) (A) (A)
                 (A) (A) (A) (A) (A) (A) (A) (A) (A) (A) (A) (A)
                 (A) (A) (A) (A) (A) (A) (A) (A) (A) (A) (A) (A)
                 (A) (A) (A) (A) (A) (A) (A) (A) (A) (A) (A) (A)
                 (A) (A) (A) (A) (A) (A) (A) (A) (A) (A) (A) (A)
                 (A) (A) (A) (A) (A) (A) (A) (A) (A) (A) (A) (A)
                 (A) (A) (A) (A) (A) (A) (A) (A) (A) (A) (A) (A)
                 (A) (A) (A) (A) (A) (A) (A) (A) (A) (A) (A) (A)
                 (A) (A) (A) (A) (A) (A) (A) (A) (A) (A) (A) (A)
                 (A) (A) (A) (A) (A) (A) (A) (A) (A) (A) (A) (A)
                 (A) (A) (A) (A) (A) (A) (A) (A) (A) (A) (A) (A)
                 (A) (A) (A) (A) (A) (A) (A) (A) (A) (A) (A) (A)
                 (A) (A) (A) (A) (A) (A) (A) (A) (A) (A) (A) (A)
                 (A) (A) (A) (A) (A) (A) (A) (A) (A) (A) (A) (A)
                 (A) (A) (A) (A) (A) (A) (A) (A) (A) (A) (A) (A)
                 (A) (A) (A) (A) (A) (A) (A) (A) (A) (A) (A) (A)
                 (A) (A) (A) (A) (A) (A) (A) (A) (A) (A) (A) (A)
                 (A) (A) (A) (A) (A) (A) (A) (A) (A) (A) (A) (A)
                 (A) (A) (A) (A) (A) (A) (A) (A) (A) (A) (A) (A)
                 (A) (A) (A) (A) (A) (A) (A) (A) (A) (A) (A) (A)
                 (A) (A) (A) (A) (A) (A) (A) (A) (A) (A) (A) (A)
                 (A) (A) (A) (A) (A) (A) (A) (A) (A) (A) (A) (A)
                 (A) (A) (A) (A) (A) (A) (A) (A) (A) (A) (A) (A)
                 (A) (A) (A) (A) (A) (A) (A) (A) (A) (A) (A) (A)
                 (A) (A) (A) (A) (A) (A) (A) (A) (A) (A) (A) (A)
                 (A) (A) (A) (A) (A) (A) (A) (A) (A) (A) (A) (A)
                 (A) (A) (A) (A) (A) (A) (A) (A) (A) (A) (A) (A)
                 (A) (A) (A) (A) (A) (A) (A) (A) (A) (A) (A) (A)
                 (A) (A) (A) (A) (A) (A) (A) (A) (A) (A) (A) (A)
                 (A) (A) (A) (A) (A) (A)
 The electronic state is 1-A.
 Alpha  occ. eigenvalues --  -19.20420 -19.14474 -14.37146 -14.23877 -14.22635
 Alpha  occ. eigenvalues --  -14.22108 -10.32612 -10.25466 -10.19389 -10.16784
 Alpha  occ. eigenvalues --  -10.15852 -10.10027  -1.12370  -1.03767  -0.94109
 Alpha  occ. eigenvalues --   -0.85521  -0.80063  -0.77096  -0.73960  -0.71243
 Alpha  occ. eigenvalues --   -0.62972  -0.60592  -0.56959  -0.54589  -0.51428
 Alpha  occ. eigenvalues --   -0.48815  -0.47928  -0.45822  -0.45280  -0.43387
 Alpha  occ. eigenvalues --   -0.41503  -0.40408  -0.39133  -0.37130  -0.36230
 Alpha  occ. eigenvalues --   -0.35208  -0.33608  -0.32667  -0.31887  -0.31204
 Alpha  occ. eigenvalues --   -0.30544  -0.28581  -0.28307  -0.26188  -0.18691
 Alpha  occ. eigenvalues --   -0.15481  -0.11872  -0.03613
 Alpha virt. eigenvalues --    0.15792   0.18122   0.20605   0.22639   0.23385
 Alpha virt. eigenvalues --    0.25077   0.25754   0.26596   0.27601   0.28269
 Alpha virt. eigenvalues --    0.30001   0.30900   0.32242   0.32733   0.33122
 Alpha virt. eigenvalues --    0.34961   0.35206   0.35467   0.36251   0.37524
 Alpha virt. eigenvalues --    0.37812   0.39304   0.40687   0.42184   0.43919
 Alpha virt. eigenvalues --    0.43991   0.44786   0.45633   0.46384   0.47419
 Alpha virt. eigenvalues --    0.47594   0.48611   0.49462   0.50837   0.51425
 Alpha virt. eigenvalues --    0.52623   0.53410   0.53819   0.54795   0.55454
 Alpha virt. eigenvalues --    0.56134   0.56735   0.57464   0.58001   0.59377
 Alpha virt. eigenvalues --    0.59623   0.60774   0.61422   0.61979   0.62440
 Alpha virt. eigenvalues --    0.62755   0.63635   0.63956   0.64806   0.65254
 Alpha virt. eigenvalues --    0.65702   0.66106   0.66895   0.67669   0.69284
 Alpha virt. eigenvalues --    0.69408   0.69980   0.70898   0.71849   0.72034
 Alpha virt. eigenvalues --    0.72106   0.73368   0.73758   0.74498   0.75415
 Alpha virt. eigenvalues --    0.77129   0.78019   0.78803   0.79377   0.80678
 Alpha virt. eigenvalues --    0.82168   0.82624   0.83638   0.84455   0.85978
 Alpha virt. eigenvalues --    0.86070   0.88804   0.90549   0.91123   0.92672
 Alpha virt. eigenvalues --    0.94795   0.96381   0.97982   0.99286   1.00683
 Alpha virt. eigenvalues --    1.02899   1.04227   1.06068   1.06547   1.08261
 Alpha virt. eigenvalues --    1.09187   1.10093   1.10273   1.12607   1.15317
 Alpha virt. eigenvalues --    1.16901   1.17679   1.18759   1.20947   1.22687
 Alpha virt. eigenvalues --    1.23972   1.26218   1.28249   1.29968   1.31026
 Alpha virt. eigenvalues --    1.33301   1.34225   1.36355   1.38105   1.39960
 Alpha virt. eigenvalues --    1.40918   1.43067   1.46296   1.47047   1.48635
 Alpha virt. eigenvalues --    1.49455   1.50364   1.52360   1.52944   1.54038
 Alpha virt. eigenvalues --    1.54956   1.55814   1.57183   1.58262   1.60312
 Alpha virt. eigenvalues --    1.61367   1.63528   1.64823   1.65291   1.67220
 Alpha virt. eigenvalues --    1.67728   1.70118   1.70920   1.72632   1.73663
 Alpha virt. eigenvalues --    1.73916   1.75729   1.77798   1.78311   1.80182
 Alpha virt. eigenvalues --    1.80359   1.81916   1.83072   1.85147   1.86570
 Alpha virt. eigenvalues --    1.88743   1.89455   1.92658   1.93526   1.95263
 Alpha virt. eigenvalues --    1.95718   1.96856   1.98615   2.00010   2.00974
 Alpha virt. eigenvalues --    2.01229   2.04394   2.05288   2.06013   2.07875
 Alpha virt. eigenvalues --    2.09142   2.09951   2.10663   2.11482   2.13262
 Alpha virt. eigenvalues --    2.15425   2.15930   2.16592   2.18470   2.20637
 Alpha virt. eigenvalues --    2.21335   2.22088   2.23212   2.23355   2.25037
 Alpha virt. eigenvalues --    2.26102   2.26872   2.27114   2.28621   2.29279
 Alpha virt. eigenvalues --    2.31768   2.32773   2.33171   2.36846   2.37649
 Alpha virt. eigenvalues --    2.40005   2.40600   2.43661   2.44297   2.45320
 Alpha virt. eigenvalues --    2.46306   2.48277   2.49170   2.51595   2.52024
 Alpha virt. eigenvalues --    2.54821   2.56368   2.58338   2.58758   2.59928
 Alpha virt. eigenvalues --    2.60804   2.62364   2.65015   2.65574   2.67324
 Alpha virt. eigenvalues --    2.68520   2.68898   2.71181   2.72577   2.74042
 Alpha virt. eigenvalues --    2.74978   2.75923   2.77270   2.79051   2.80965
 Alpha virt. eigenvalues --    2.81710   2.82937   2.83801   2.84361   2.85910
 Alpha virt. eigenvalues --    2.88807   2.89455   2.90242   2.90665   2.91379
 Alpha virt. eigenvalues --    2.93948   2.94824   2.95780   2.96553   2.97369
 Alpha virt. eigenvalues --    2.99540   3.03631   3.05055   3.06608   3.07838
 Alpha virt. eigenvalues --    3.09142   3.10213   3.12192   3.13363   3.14677
 Alpha virt. eigenvalues --    3.17134   3.18956   3.21686   3.22980   3.24989
 Alpha virt. eigenvalues --    3.25703   3.26483   3.28841   3.29069   3.30286
 Alpha virt. eigenvalues --    3.31362   3.35464   3.38529   3.39325   3.40446
 Alpha virt. eigenvalues --    3.42469   3.42998   3.44429   3.45185   3.46300
 Alpha virt. eigenvalues --    3.46412   3.48852   3.49880   3.50766   3.51882
 Alpha virt. eigenvalues --    3.52587   3.53572   3.53737   3.56738   3.58467
 Alpha virt. eigenvalues --    3.59908   3.62139   3.63941   3.64814   3.65937
 Alpha virt. eigenvalues --    3.68050   3.69188   3.69534   3.70936   3.73958
 Alpha virt. eigenvalues --    3.75404   3.76436   3.77767   3.81362   3.82020
 Alpha virt. eigenvalues --    3.83565   3.85764   3.86722   3.88523   3.92626
 Alpha virt. eigenvalues --    3.93751   3.95166   3.99578   4.04112   4.04702
 Alpha virt. eigenvalues --    4.05860   4.07976   4.10881   4.12618   4.13933
 Alpha virt. eigenvalues --    4.14585   4.17880   4.20940   4.21149   4.22280
 Alpha virt. eigenvalues --    4.26212   4.31355   4.32609   4.36656   4.38029
 Alpha virt. eigenvalues --    4.40539   4.43809   4.48655   4.50890   4.53665
 Alpha virt. eigenvalues --    4.54231   4.56498   4.58749   4.59360   4.61306
 Alpha virt. eigenvalues --    4.64119   4.66129   4.70309   4.74349   4.74851
 Alpha virt. eigenvalues --    4.77448   4.81562   4.84626   4.88399   4.90077
 Alpha virt. eigenvalues --    4.91581   4.93509   4.96879   4.98543   4.99687
 Alpha virt. eigenvalues --    5.01183   5.02085   5.07474   5.09263   5.09989
 Alpha virt. eigenvalues --    5.11794   5.12729   5.16457   5.19241   5.20927
 Alpha virt. eigenvalues --    5.25073   5.26067   5.26373   5.29961   5.30932
 Alpha virt. eigenvalues --    5.33997   5.34776   5.35709   5.38074   5.38626
 Alpha virt. eigenvalues --    5.40622   5.42108   5.46475   5.46772   5.49042
 Alpha virt. eigenvalues --    5.49648   5.52979   5.57244   5.59738   5.60891
 Alpha virt. eigenvalues --    5.63849   5.68249   5.69014   5.72299   5.73115
 Alpha virt. eigenvalues --    5.75298   5.76431   5.80457   5.85827   5.87758
 Alpha virt. eigenvalues --    5.91988   5.94712   5.97926   6.01195   6.10710
 Alpha virt. eigenvalues --    6.16561   6.20446   6.25860   6.35952   6.36443
 Alpha virt. eigenvalues --    6.53631   6.58951   6.63522   6.67849   6.89957
 Alpha virt. eigenvalues --    6.90134   6.97030   7.00756   7.19117   7.30569
 Alpha virt. eigenvalues --    7.34111   7.46543  22.62014  22.71041  22.73367
 Alpha virt. eigenvalues --   22.76965  22.80220  23.51683  32.20080  32.22237
 Alpha virt. eigenvalues --   32.30963  32.74990  44.02112  44.08743
          Condensed to atoms (all electrons):
               1          2          3          4          5          6
     1  N    6.771153   0.368694   0.372488   0.056222   0.142768  -0.044782
     2  H    0.368694   0.441821  -0.028764  -0.001654  -0.033597   0.005963
     3  H    0.372488  -0.028764   0.442035  -0.000773  -0.019341  -0.010993
     4  H    0.056222  -0.001654  -0.000773   0.358836  -0.017517   0.001364
     5  C    0.142768  -0.033597  -0.019341  -0.017517   5.404378   0.404203
     6  H   -0.044782   0.005963  -0.010993   0.001364   0.404203   0.578484
     7  C   -0.050559  -0.005877  -0.002929   0.003810   0.223813  -0.035701
     8  H    0.008509   0.000339  -0.000453  -0.000235  -0.044720  -0.003118
     9  H   -0.010419   0.004957  -0.000163  -0.000099  -0.025097   0.008555
    10  C    0.010196  -0.000191   0.001699  -0.000246  -0.041869  -0.003587
    11  H    0.017668   0.003256  -0.000414   0.000005  -0.023988  -0.000815
    12  H   -0.001749   0.000354   0.000412  -0.000046   0.006057   0.003025
    13  C    0.001887  -0.000505   0.000175   0.000005  -0.014374   0.000735
    14  H   -0.000106   0.000051  -0.000006   0.000000   0.001672  -0.000015
    15  H    0.000066   0.000000   0.000048  -0.000001   0.002240  -0.000247
    16  N    0.000117   0.000006   0.000008  -0.000000  -0.000976  -0.000071
    17  H   -0.000184   0.000110   0.000004  -0.000000   0.001142  -0.000057
    18  C    0.000017  -0.000009   0.000000  -0.000000  -0.000162   0.000004
    19  N   -0.000000   0.000002   0.000000   0.000000   0.000025  -0.000001
    20  H   -0.000000   0.000000  -0.000000   0.000000   0.000005   0.000000
    21  H   -0.000001   0.000005   0.000000  -0.000000   0.000028  -0.000001
    22  N   -0.000000   0.000000   0.000000  -0.000000  -0.000002  -0.000000
    23  H   -0.000000  -0.000000   0.000000   0.000000   0.000001  -0.000000
    24  H   -0.000000   0.000000   0.000000  -0.000000   0.000007  -0.000000
    25  C   -0.006156  -0.000621   0.000444  -0.034417   0.233545  -0.014144
    26  O   -0.045386   0.000868   0.000307   0.288906  -0.123786   0.001698
    27  O    0.005319  -0.000022  -0.000214   0.005001  -0.131375   0.002427
               7          8          9         10         11         12
     1  N   -0.050559   0.008509  -0.010419   0.010196   0.017668  -0.001749
     2  H   -0.005877   0.000339   0.004957  -0.000191   0.003256   0.000354
     3  H   -0.002929  -0.000453  -0.000163   0.001699  -0.000414   0.000412
     4  H    0.003810  -0.000235  -0.000099  -0.000246   0.000005  -0.000046
     5  C    0.223813  -0.044720  -0.025097  -0.041869  -0.023988   0.006057
     6  H   -0.035701  -0.003118   0.008555  -0.003587  -0.000815   0.003025
     7  C    5.321227   0.396059   0.389504   0.142121  -0.057365  -0.019907
     8  H    0.396059   0.532316  -0.016341  -0.017228   0.007848  -0.006898
     9  H    0.389504  -0.016341   0.599687  -0.058202  -0.005962   0.008349
    10  C    0.142121  -0.017228  -0.058202   5.297682   0.411752   0.355271
    11  H   -0.057365   0.007848  -0.005962   0.411752   0.667102  -0.042420
    12  H   -0.019907  -0.006898   0.008349   0.355271  -0.042420   0.625044
    13  C   -0.058974   0.005240   0.006407   0.150378  -0.032603  -0.025649
    14  H   -0.027613   0.003450  -0.001383   0.044140   0.012356  -0.013865
    15  H    0.050568  -0.002761   0.004690  -0.097387  -0.014796   0.018700
    16  N    0.011282   0.000126   0.000223  -0.097288  -0.005457   0.018704
    17  H   -0.002405  -0.000151  -0.000384   0.037569   0.019399  -0.000329
    18  C   -0.003409  -0.000089   0.000187  -0.006092  -0.001846  -0.000121
    19  N    0.001626  -0.000004  -0.000144   0.006316  -0.000279   0.000200
    20  H   -0.000142   0.000015  -0.000042   0.001374   0.000041  -0.000134
    21  H    0.000064  -0.000015  -0.000057   0.005473   0.001005   0.000091
    22  N   -0.000115   0.000000  -0.000001  -0.001172  -0.000030  -0.000127
    23  H    0.000076  -0.000002   0.000001  -0.000335  -0.000070   0.000379
    24  H   -0.000001  -0.000003  -0.000001   0.002415   0.000319   0.000224
    25  C   -0.018210  -0.002271  -0.002213  -0.004102  -0.000425   0.000689
    26  O   -0.001463   0.000947   0.002267  -0.000662  -0.000009   0.000012
    27  O    0.011577   0.012348   0.000309  -0.001351  -0.000079   0.000025
              13         14         15         16         17         18
     1  N    0.001887  -0.000106   0.000066   0.000117  -0.000184   0.000017
     2  H   -0.000505   0.000051   0.000000   0.000006   0.000110  -0.000009
     3  H    0.000175  -0.000006   0.000048   0.000008   0.000004   0.000000
     4  H    0.000005   0.000000  -0.000001  -0.000000  -0.000000  -0.000000
     5  C   -0.014374   0.001672   0.002240  -0.000976   0.001142  -0.000162
     6  H    0.000735  -0.000015  -0.000247  -0.000071  -0.000057   0.000004
     7  C   -0.058974  -0.027613   0.050568   0.011282  -0.002405  -0.003409
     8  H    0.005240   0.003450  -0.002761   0.000126  -0.000151  -0.000089
     9  H    0.006407  -0.001383   0.004690   0.000223  -0.000384   0.000187
    10  C    0.150378   0.044140  -0.097387  -0.097288   0.037569  -0.006092
    11  H   -0.032603   0.012356  -0.014796  -0.005457   0.019399  -0.001846
    12  H   -0.025649  -0.013865   0.018700   0.018704  -0.000329  -0.000121
    13  C    5.202545   0.282198   0.343984   0.438562  -0.165754  -0.069923
    14  H    0.282198   0.677602  -0.069376  -0.055958   0.043790   0.036173
    15  H    0.343984  -0.069376   0.868738  -0.103667  -0.005501  -0.035814
    16  N    0.438562  -0.055958  -0.103667   6.824409   0.147082   0.511199
    17  H   -0.165754   0.043790  -0.005501   0.147082   1.005192  -0.273397
    18  C   -0.069923   0.036173  -0.035814   0.511199  -0.273397   5.698908
    19  N    0.016261  -0.002793   0.041013  -0.156721  -0.017416   0.352574
    20  H    0.006343   0.000469  -0.002777   0.007754  -0.001642  -0.076534
    21  H   -0.016313   0.008461   0.007172  -0.044561   0.126977  -0.267542
    22  N    0.006555   0.003199  -0.000285  -0.178851   0.025793   0.405885
    23  H    0.000724  -0.000478   0.000558   0.011333   0.002111  -0.072864
    24  H   -0.007924   0.002720   0.001204  -0.045927   0.102603  -0.244789
    25  C   -0.000313  -0.000137   0.000419  -0.000003   0.000008  -0.000004
    26  O    0.000004  -0.000001  -0.000001  -0.000000  -0.000000   0.000000
    27  O    0.000197  -0.000029  -0.000004  -0.000000   0.000000   0.000000
              19         20         21         22         23         24
     1  N   -0.000000  -0.000000  -0.000001  -0.000000  -0.000000  -0.000000
     2  H    0.000002   0.000000   0.000005   0.000000  -0.000000   0.000000
     3  H    0.000000  -0.000000   0.000000   0.000000   0.000000   0.000000
     4  H    0.000000   0.000000  -0.000000  -0.000000   0.000000  -0.000000
     5  C    0.000025   0.000005   0.000028  -0.000002   0.000001   0.000007
     6  H   -0.000001   0.000000  -0.000001  -0.000000  -0.000000  -0.000000
     7  C    0.001626  -0.000142   0.000064  -0.000115   0.000076  -0.000001
     8  H   -0.000004   0.000015  -0.000015   0.000000  -0.000002  -0.000003
     9  H   -0.000144  -0.000042  -0.000057  -0.000001   0.000001  -0.000001
    10  C    0.006316   0.001374   0.005473  -0.001172  -0.000335   0.002415
    11  H   -0.000279   0.000041   0.001005  -0.000030  -0.000070   0.000319
    12  H    0.000200  -0.000134   0.000091  -0.000127   0.000379   0.000224
    13  C    0.016261   0.006343  -0.016313   0.006555   0.000724  -0.007924
    14  H   -0.002793   0.000469   0.008461   0.003199  -0.000478   0.002720
    15  H    0.041013  -0.002777   0.007172  -0.000285   0.000558   0.001204
    16  N   -0.156721   0.007754  -0.044561  -0.178851   0.011333  -0.045927
    17  H   -0.017416  -0.001642   0.126977   0.025793   0.002111   0.102603
    18  C    0.352574  -0.076534  -0.267542   0.405885  -0.072864  -0.244789
    19  N    6.737257   0.392449   0.230237  -0.092554   0.012611  -0.026222
    20  H    0.392449   0.559961  -0.063594   0.010272  -0.001463  -0.002329
    21  H    0.230237  -0.063594   0.921693  -0.009085   0.000118   0.093698
    22  N   -0.092554   0.010272  -0.009085   6.694940   0.366926   0.277111
    23  H    0.012611  -0.001463   0.000118   0.366926   0.549306  -0.034482
    24  H   -0.026222  -0.002329   0.093698   0.277111  -0.034482   0.833842
    25  C    0.000000  -0.000000   0.000000  -0.000000   0.000000   0.000000
    26  O   -0.000000  -0.000000   0.000000  -0.000000  -0.000000   0.000000
    27  O    0.000000  -0.000000   0.000000   0.000000   0.000000   0.000000
              25         26         27
     1  N   -0.006156  -0.045386   0.005319
     2  H   -0.000621   0.000868  -0.000022
     3  H    0.000444   0.000307  -0.000214
     4  H   -0.034417   0.288906   0.005001
     5  C    0.233545  -0.123786  -0.131375
     6  H   -0.014144   0.001698   0.002427
     7  C   -0.018210  -0.001463   0.011577
     8  H   -0.002271   0.000947   0.012348
     9  H   -0.002213   0.002267   0.000309
    10  C   -0.004102  -0.000662  -0.001351
    11  H   -0.000425  -0.000009  -0.000079
    12  H    0.000689   0.000012   0.000025
    13  C   -0.000313   0.000004   0.000197
    14  H   -0.000137  -0.000001  -0.000029
    15  H    0.000419  -0.000001  -0.000004
    16  N   -0.000003  -0.000000  -0.000000
    17  H    0.000008  -0.000000   0.000000
    18  C   -0.000004   0.000000   0.000000
    19  N    0.000000  -0.000000   0.000000
    20  H   -0.000000  -0.000000  -0.000000
    21  H    0.000000   0.000000   0.000000
    22  N   -0.000000  -0.000000   0.000000
    23  H    0.000000  -0.000000   0.000000
    24  H    0.000000   0.000000   0.000000
    25  C    4.436017   0.392304   0.700652
    26  O    0.392304   7.953863  -0.085405
    27  O    0.700652  -0.085405   7.840551
 Mulliken charges:
               1
     1  N   -0.595759
     2  H    0.244812
     3  H    0.246429
     4  H    0.340839
     5  C    0.056922
     6  H    0.107074
     7  C   -0.267057
     8  H    0.127093
     9  H    0.095371
    10  C   -0.136676
    11  H    0.045806
    12  H    0.073710
    13  C   -0.069872
    14  H    0.055478
    15  H   -0.006784
    16  N   -0.281327
    17  H   -0.044557
    18  C    0.047647
    19  N   -0.494437
    20  H    0.169971
    21  H    0.006146
    22  N   -0.508462
    23  H    0.165551
    24  H    0.047534
    25  C    0.318938
    26  O   -0.384464
    27  O   -0.359925
 Sum of Mulliken charges =  -1.00000
 Mulliken charges with hydrogens summed into heavy atoms:
               1
     1  N   -0.104519
     5  C    0.163996
     7  C   -0.044593
    10  C   -0.017160
    13  C   -0.021178
    16  N   -0.325884
    18  C    0.047647
    19  N   -0.318321
    22  N   -0.295377
    25  C    0.318938
    26  O   -0.043624
    27  O   -0.359925
 Electronic spatial extent (au):  <R**2>=           4290.7051
 Charge=             -1.0000 electrons
 Dipole moment (field-independent basis, Debye):
    X=            -14.1009    Y=              5.7891    Z=              0.8439  Tot=             15.2664
 Quadrupole moment (field-independent basis, Debye-Ang):
   XX=           -197.7479   YY=            -83.5830   ZZ=            -78.4772
   XY=             -2.9165   XZ=              0.4194   YZ=             -1.5287
 Traceless Quadrupole moment (field-independent basis, Debye-Ang):
   XX=            -77.8119   YY=             36.3531   ZZ=             41.4588
   XY=             -2.9165   XZ=              0.4194   YZ=             -1.5287
 Octapole moment (field-independent basis, Debye-Ang**2):
  XXX=           -355.6456  YYY=             21.2936  ZZZ=             -3.1395  XYY=            -20.1664
  XXY=             93.7483  XXZ=             -8.9000  XZZ=            -33.4373  YZZ=              4.8198
  YYZ=              3.6268  XYZ=              4.5496
 Hexadecapole moment (field-independent basis, Debye-Ang**3):
 XXXX=          -8078.2634 YYYY=           -422.1810 ZZZZ=           -266.7109 XXXY=             50.8393
 XXXZ=            -27.1227 YYYX=            -24.8045 YYYZ=            -10.0152 ZZZX=            -33.9268
 ZZZY=             -0.9506 XXYY=          -1044.0160 XXZZ=           -946.9962 YYZZ=           -114.2091
 XXYZ=            -11.1846 YYXZ=             -7.1483 ZZXY=              2.6932
 N-N= 7.113394660466D+02 E-N=-2.854477732068D+03  KE= 6.044140850719D+02
 Unable to Open any file for archive entry.
 1\1\GINC-WATER\SP\RwB97XD\def2TZVP\C6H15N4O2(1-)\DAYALYZ\10-Jun-2025\0
 \\# wB97xD/Def2TZVP SCF(Tight) Int(Grid=299974)\\Displacement_-0.07\\-
 1,1\N,0,-2.449391,1.662106,0.312579\H,0,-1.892601,1.661727,1.158668\H,
 0,-2.080546,2.396181,-0.273303\H,0,-4.177396,1.141286,0.662011\C,0,-2.
 348291,0.354291,-0.351331\H,0,-2.34121,0.525036,-1.432399\C,0,-1.09445
 4,-0.433998,0.018947\H,0,-1.158799,-1.420651,-0.442292\H,0,-1.094388,-
 0.600813,1.103594\C,0,0.189472,0.269027,-0.401511\H,0,0.226249,1.27477
 5,0.033698\H,0,0.202187,0.403801,-1.488111\C,0,1.454987,-0.475381,0.01
 0983\H,0,1.500154,-1.447964,-0.488022\H,0,1.388051,-0.690728,1.097108\
 N,0,2.637813,0.252447,-0.370362\H,0,2.663477,1.14038,0.184121\C,0,3.91
 18,-0.45352,-0.159939\N,0,4.229564,-0.562412,1.251282\H,0,3.542517,-1.
 123961,1.739852\H,0,4.115188,0.367081,1.736239\N,0,4.954903,0.392404,-
 0.715069\H,0,4.675941,0.573868,-1.671712\H,0,4.935728,1.296549,-0.1934
 21\C,0,-3.634014,-0.44553,-0.088747\O,0,-4.586522,0.257947,0.524834\O,
 0,-3.789113,-1.585375,-0.425703\\Version=ES64L-G16RevC.01\State=1-A\HF
 =-607.1321906\RMSD=2.238e-09\Dipole=-5.5474512,2.277532,0.3372019\Quad
 rupole=-57.8519484,27.0342026,30.8177459,-2.1567438,0.2938734,-1.14679
 95\PG=C01 [X(C6H15N4O2)]\\@
 The archive entry for this job was punched.


 FROM AN ANONYMOUS WRITER, ON PERSPECTIVE:

 MAN, DESPITE HIS ARTISTIC PRETENSIONS, HIS SOPHISTICATION AND MANY 
 ACCOMPLISHMENTS, OWES THE FACT OF HIS EXISTENCE TO A SIX-INCH LAYER OF 
 TOPSOIL AND THE FACT THAT IT RAINS.
 Job cpu time:       0 days  0 hours 47 minutes 34.9 seconds.
 Elapsed time:       0 days  0 hours 47 minutes 40.9 seconds.
 File lengths (MBytes):  RWF=    118 Int=      0 D2E=      0 Chk=     13 Scr=      1
 Normal termination of Gaussian 16 at Tue Jun 10 15:30:09 2025.
