 Entering Gaussian System, Link 0=g16
 Initial command:
 /opt/gaussian/g16/l1.exe "/scratch/Gau-88320.inp" -scrdir="/scratch/"
 Entering Link 1 = /opt/gaussian/g16/l1.exe PID=     88321.
  
 Copyright (c) 1988-2019, Gaussian, Inc.  All Rights Reserved.
  
 This is part of the Gaussian(R) 16 program.  It is based on
 the Gaussian(R) 09 system (copyright 2009, Gaussian, Inc.),
 the Gaussian(R) 03 system (copyright 2003, Gaussian, Inc.),
 the Gaussian(R) 98 system (copyright 1998, Gaussian, Inc.),
 the Gaussian(R) 94 system (copyright 1995, Gaussian, Inc.),
 the Gaussian 92(TM) system (copyright 1992, Gaussian, Inc.),
 the Gaussian 90(TM) system (copyright 1990, Gaussian, Inc.),
 the Gaussian 88(TM) system (copyright 1988, Gaussian, Inc.),
 the Gaussian 86(TM) system (copyright 1986, Carnegie Mellon
 University), and the Gaussian 82(TM) system (copyright 1983,
 Carnegie Mellon University). Gaussian is a federally registered
 trademark of Gaussian, Inc.
  
 This software contains proprietary and confidential information,
 including trade secrets, belonging to Gaussian, Inc.
  
 This software is provided under written license and may be
 used, copied, transmitted, or stored only in accord with that
 written license.
  
 The following legend is applicable only to US Government
 contracts under FAR:
  
                    RESTRICTED RIGHTS LEGEND
  
 Use, reproduction and disclosure by the US Government is
 subject to restrictions as set forth in subparagraphs (a)
 and (c) of the Commercial Computer Software - Restricted
 Rights clause in FAR 52.227-19.
  
 Gaussian, Inc.
 340 Quinnipiac St., Bldg. 40, Wallingford CT 06492
  
  
 ---------------------------------------------------------------
 Warning -- This program may not be used in any manner that
 competes with the business of Gaussian, Inc. or will provide
 assistance to any competitor of Gaussian, Inc.  The licensee
 of this program is prohibited from giving any competitor of
 Gaussian, Inc. access to this program.  By using this program,
 the user acknowledges that Gaussian, Inc. is engaged in the
 business of creating and licensing software in the field of
 computational chemistry and represents and warrants to the
 licensee that it is not a competitor of Gaussian, Inc. and that
 it will not use this program in any manner prohibited above.
 ---------------------------------------------------------------
  

 Cite this work as:
 Gaussian 16, Revision C.01,
 M. J. Frisch, G. W. Trucks, H. B. Schlegel, G. E. Scuseria, 
 M. A. Robb, J. R. Cheeseman, G. Scalmani, V. Barone, 
 G. A. Petersson, H. Nakatsuji, X. Li, M. Caricato, A. V. Marenich, 
 J. Bloino, B. G. Janesko, R. Gomperts, B. Mennucci, H. P. Hratchian, 
 J. V. Ortiz, A. F. Izmaylov, J. L. Sonnenberg, D. Williams-Young, 
 F. Ding, F. Lipparini, F. Egidi, J. Goings, B. Peng, A. Petrone, 
 T. Henderson, D. Ranasinghe, V. G. Zakrzewski, J. Gao, N. Rega, 
 G. Zheng, W. Liang, M. Hada, M. Ehara, K. Toyota, R. Fukuda, 
 J. Hasegawa, M. Ishida, T. Nakajima, Y. Honda, O. Kitao, H. Nakai, 
 T. Vreven, K. Throssell, J. A. Montgomery, Jr., J. E. Peralta, 
 F. Ogliaro, M. J. Bearpark, J. J. Heyd, E. N. Brothers, K. N. Kudin, 
 V. N. Staroverov, T. A. Keith, R. Kobayashi, J. Normand, 
 K. Raghavachari, A. P. Rendell, J. C. Burant, S. S. Iyengar, 
 J. Tomasi, M. Cossi, J. M. Millam, M. Klene, C. Adamo, R. Cammi, 
 J. W. Ochterski, R. L. Martin, K. Morokuma, O. Farkas, 
 J. B. Foresman, and D. J. Fox, Gaussian, Inc., Wallingford CT, 2019.
 
 ******************************************
 Gaussian 16:  ES64L-G16RevC.01  3-Jul-2019
                10-Jun-2025 
 ******************************************
 ---------------------------------------------
 # wB97xD/Def2TZVP SCF(Tight) Int(Grid=299974)
 ---------------------------------------------
 1/38=1,172=1/1;
 2/12=2,17=6,18=5,40=1/2;
 3/5=44,7=101,11=2,25=1,30=1,74=-58,75=299974/1,2,3;
 4//1;
 5/5=2,32=2,38=5/2;
 6/7=2,8=2,9=2,10=2,28=1/1;
 99/5=1,9=1/99;
 -----------------
 Displacement_0.07
 -----------------
 Symbolic Z-matrix:
 Charge = -1 Multiplicity = 1
 N                    -2.44939   1.66211   0.31258 
 H                    -1.8926    1.66173   1.15867 
 H                    -2.08055   2.39618  -0.2733 
 H                    -4.1774    1.14129   0.66201 
 C                    -2.34829   0.35429  -0.35133 
 H                    -2.34121   0.52504  -1.4324 
 C                    -1.09445  -0.434     0.01895 
 H                    -1.1588   -1.42065  -0.44229 
 H                    -1.09439  -0.60081   1.10359 
 C                     0.18947   0.26903  -0.40151 
 H                     0.22625   1.27477   0.0337 
 H                     0.20219   0.4038   -1.48811 
 C                     1.45499  -0.47538   0.01098 
 H                     1.50015  -1.44936  -0.48662 
 H                     1.38665  -0.69213   1.09711 
 N                     2.63781   0.25245  -0.37036 
 H                     2.66348   1.14038   0.18552 
 C                     3.9104   -0.45352  -0.15854 
 N                     4.22816  -0.56101   1.25828 
 H                     3.54812  -1.17436   1.68805 
 H                     4.15019   0.39508   1.67464 
 N                     4.9535    0.3868   -0.71227 
 H                     4.68714   0.63687  -1.65911 
 H                     4.93993   1.33155  -0.24942 
 C                    -3.63401  -0.44553  -0.08875 
 O                    -4.58652   0.25795   0.52483 
 O                    -3.78911  -1.58538  -0.4257 
 
                          Input orientation:                          
 ---------------------------------------------------------------------
 Center     Atomic      Atomic             Coordinates (Angstroms)
 Number     Number       Type             X           Y           Z
 ---------------------------------------------------------------------
      1          7           0       -2.449391    1.662106    0.312579
      2          1           0       -1.892601    1.661727    1.158668
      3          1           0       -2.080546    2.396181   -0.273303
      4          1           0       -4.177396    1.141286    0.662011
      5          6           0       -2.348291    0.354291   -0.351331
      6          1           0       -2.341210    0.525036   -1.432399
      7          6           0       -1.094454   -0.433998    0.018947
      8          1           0       -1.158799   -1.420651   -0.442292
      9          1           0       -1.094388   -0.600813    1.103594
     10          6           0        0.189472    0.269027   -0.401511
     11          1           0        0.226249    1.274775    0.033698
     12          1           0        0.202187    0.403801   -1.488111
     13          6           0        1.454987   -0.475381    0.010983
     14          1           0        1.500154   -1.449364   -0.486622
     15          1           0        1.386651   -0.692128    1.097108
     16          7           0        2.637813    0.252447   -0.370362
     17          1           0        2.663477    1.140380    0.185521
     18          6           0        3.910400   -0.453520   -0.158539
     19          7           0        4.228164   -0.561012    1.258282
     20          1           0        3.548117   -1.174361    1.688052
     21          1           0        4.150188    0.395081    1.674639
     22          7           0        4.953503    0.386804   -0.712269
     23          1           0        4.687141    0.636868   -1.659112
     24          1           0        4.939928    1.331549   -0.249421
     25          6           0       -3.634014   -0.445530   -0.088747
     26          8           0       -4.586522    0.257947    0.524834
     27          8           0       -3.789113   -1.585375   -0.425703
 ---------------------------------------------------------------------
                    Distance matrix (angstroms):
                    1          2          3          4          5
     1  N    0.000000
     2  H    1.012858   0.000000
     3  H    1.009044   1.620274   0.000000
     4  H    1.838303   2.395374   2.616554   0.000000
     5  C    1.470162   2.048692   2.060847   2.234244   0.000000
     6  H    2.085565   2.864777   2.216446   2.852700   1.094492
     7  C    2.513111   2.515565   3.011262   3.521304   1.526634
     8  H    3.426200   3.550013   3.930188   4.110345   2.138594
     9  H    2.753641   2.399847   3.442430   3.568591   2.145065
    10  C    3.068255   2.951068   3.113552   4.578368   2.539691
    11  H    2.717876   2.429982   2.583235   4.450246   2.761122
    12  H    3.443353   3.602215   3.264385   4.934334   2.792787
    13  C    4.461387   4.134097   4.563626   5.895862   3.909546
    14  H    5.091058   4.888420   5.258815   6.345502   4.252294
    15  H    4.568711   4.037068   4.841191   5.874465   4.140382
    16  N    5.322893   4.984842   5.183428   6.950029   4.987180
    17  H    5.140988   4.687928   4.928824   6.857448   5.101369
    18  C    6.718986   6.315388   6.635164   8.284271   6.313552
    19  N    7.101151   6.512623   7.133762   8.596906   6.832159
    20  H    6.775513   6.158332   6.948203   8.130100   6.423666
    21  H    6.856749   6.195637   6.827952   8.422048   6.807088
    22  N    7.581527   7.210754   7.328583   9.264513   7.310782
    23  H    7.474541   7.230714   7.128621   9.177258   7.161525
    24  H    7.418029   6.983923   7.100779   9.164743   7.354152
    25  C    2.450821   3.004845   3.243863   1.837631   1.536798
    26  O    2.565939   3.103152   3.389540   0.983102   2.405541
    27  O    3.589714   4.080522   4.335345   2.961176   2.417396
                    6          7          8          9         10
     6  H    0.000000
     7  C    2.140222   0.000000
     8  H    2.482762   1.091039   0.000000
     9  H    3.041934   1.097400   1.751013   0.000000
    10  C    2.744562   1.522989   2.162061   2.161078   0.000000
    11  H    3.050147   2.159717   3.067612   2.531124   1.096489
    12  H    2.546894   2.157408   2.504924   3.067131   1.095000
    13  C    4.182738   2.549789   2.816180   2.776481   1.525065
    14  H    4.421406   2.831706   2.659478   3.159189   2.162868
    15  H    4.666566   2.717525   3.062648   2.482727   2.145441
    16  N    5.098323   3.814785   4.149541   4.102429   2.448595
    17  H    5.295584   4.077801   4.643579   4.242188   2.687855
    18  C    6.454682   5.008038   5.168427   5.163582   3.798212
    19  N    7.181639   5.466475   5.714044   5.324948   4.444650
    20  H    6.878178   4.988739   5.172435   4.714170   4.210717
    21  H    7.197834   5.561920   5.996968   5.368750   4.473652
    22  N    7.331476   6.147046   6.379656   6.391379   4.775608
    23  H    7.032896   6.114694   6.315778   6.526138   4.684644
    24  H    7.420571   6.293087   6.693749   6.479016   4.870207
    25  C    2.102080   2.541869   2.683756   2.809891   3.902238
    26  O    2.990572   3.595726   3.937297   3.642449   4.865014
    27  O    2.750217   2.963877   2.635519   3.251101   4.389593
                   11         12         13         14         15
    11  H    0.000000
    12  H    1.753590   0.000000
    13  C    2.138541   2.142371   0.000000
    14  H    3.051967   2.474251   1.094666   0.000000
    15  H    2.519143   3.047519   1.109647   1.759116   0.000000
    16  N    2.650294   2.684128   1.440220   2.050352   2.147346
    17  H    2.445648   3.066193   2.025240   2.917511   2.412335
    18  C    4.073933   4.031576   2.461355   2.628427   2.828938
    19  N    4.570016   4.968101   3.041973   3.357960   2.849099
    20  H    4.446342   4.875844   2.771701   2.999831   2.292095
    21  H    4.343253   5.058634   3.284747   3.885319   3.025343
    22  N    4.867432   4.814273   3.675061   3.917659   4.142508
    23  H    4.813740   4.494260   3.804357   3.985471   4.500690
    24  H    4.722515   4.984101   3.934161   4.429649   4.305135
    25  C    4.228010   4.170854   5.090066   5.246491   5.164701
    26  O    4.943472   5.196629   6.107507   6.401998   6.075272
    27  O    4.951226   4.584322   5.378045   5.291366   5.468581
                   16         17         18         19         20
    16  N    0.000000
    17  H    1.047898   0.000000
    18  C    1.470624   2.052733   0.000000
    19  N    2.417315   2.548293   1.455991   0.000000
    20  H    2.664864   2.897967   2.015133   1.011614   0.000000
    21  H    2.547479   2.232320   2.034248   1.045728   1.681017
    22  N    2.344648   2.572571   1.449422   2.303811   3.189653
    23  H    2.451204   2.784136   2.010968   3.186968   3.972585
    24  H    2.545353   2.325500   2.062682   2.522214   3.459845
    25  C    6.316826   6.499902   7.544741   7.977573   7.434461
    26  O    7.279589   7.311382   8.553997   8.882980   8.341279
    27  O    6.684761   7.031305   7.786846   8.256019   7.646688
                   21         22         23         24         25
    21  H    0.000000
    22  N    2.518474   0.000000
    23  H    3.385362   1.014885   0.000000
    24  H    2.280936   1.052120   1.591764   0.000000
    25  C    8.025581   8.650261   8.536935   8.757643   0.000000
    26  O    8.813113   9.620764   9.534885   9.617970   1.333654
    27  O    8.447848   8.966880   8.849098   9.205198   1.198683
                   26         27
    26  O    0.000000
    27  O    2.221985   0.000000
 Stoichiometry    C6H15N4O2(1-)
 Framework group  C1[X(C6H15N4O2)]
 Deg. of freedom    75
 Full point group                 C1      NOp   1
 Largest Abelian subgroup         C1      NOp   1
 Largest concise Abelian subgroup C1      NOp   1
                         Standard orientation:                         
 ---------------------------------------------------------------------
 Center     Atomic      Atomic             Coordinates (Angstroms)
 Number     Number       Type             X           Y           Z
 ---------------------------------------------------------------------
      1          7           0       -2.449333    1.661425    0.316918
      2          1           0       -1.892660    1.658789    1.163080
      3          1           0       -2.080300    2.396949   -0.267025
      4          1           0       -4.177462    1.139960    0.664772
      5          6           0       -2.348331    0.355306   -0.350338
      6          1           0       -2.341076    0.528828   -1.430963
      7          6           0       -1.094660   -0.434115    0.018085
      8          1           0       -1.159084   -1.419570   -0.445698
      9          1           0       -1.094768   -0.603718    1.102300
     10          6           0        0.189427    0.269801   -0.400387
     11          1           0        0.226290    1.274422    0.037411
     12          1           0        0.202311    0.407366   -1.486636
     13          6           0        1.454776   -0.475849    0.010366
     14          1           0        1.499871   -1.448556   -0.489735
     15          1           0        1.386259   -0.695377    1.095921
     16          7           0        2.637761    0.252785   -0.368944
     17          1           0        2.663477    1.139282    0.189224
     18          6           0        3.910216   -0.453910   -0.158761
     19          7           0        4.227768   -0.565090    1.257823
     20          1           0        3.547573   -1.179443    1.685921
     21          1           0        4.149874    0.389941    1.676626
     22          7           0        4.953518    0.387683   -0.710185
     23          1           0        4.687323    0.640218   -1.656419
     24          1           0        4.940016    1.331237   -0.244912
     25          6           0       -3.634206   -0.445000   -0.089988
     26          8           0       -4.586697    0.257036    0.525268
     27          8           0       -3.789425   -1.583953   -0.429895
 ---------------------------------------------------------------------
 Rotational constants (GHZ):           2.7668472           0.2562307           0.2486437
 Standard basis: def2TZVP (5D, 7F)
 There are   522 symmetry adapted cartesian basis functions of A   symmetry.
 There are   462 symmetry adapted basis functions of A   symmetry.
   462 basis functions,   732 primitive gaussians,   522 cartesian basis functions
    48 alpha electrons       48 beta electrons
       nuclear repulsion energy       711.3447194104 Hartrees.
 NAtoms=   27 NActive=   27 NUniq=   27 SFac= 1.00D+00 NAtFMM=   60 NAOKFM=F Big=F
 Integral buffers will be    131072 words long.
 Raffenetti 2 integral format.
 Two-electron integral symmetry is turned on.
 Nuclear repulsion after empirical dispersion term =      711.3272139266 Hartrees.
 One-electron integrals computed using PRISM.
   1 Symmetry operations used in ECPInt.
 ECPInt:  NShTT=   18528 NPrTT=   54924 LenC2=   16268 LenP2D=   36013.
 LDataN:  DoStor=T MaxTD1= 6 Len=  172
 NBasis=   462 RedAO= T EigKep=  7.71D-05  NBF=   462
 NBsUse=   462 1.00D-06 EigRej= -1.00D+00 NBFU=   462
 ExpMin= 9.52D-02 ExpMax= 2.70D+04 ExpMxC= 9.22D+02 IAcc=4 IRadAn=    299974 AccDes= 0.00D+00
 Harris functional with IExCor= 4639 and IRadAn=  299974 diagonalized for initial guess.
 HarFok:  IExCor= 4639 AccDes= 0.00D+00 IRadAn=    299974 IDoV= 1 UseB2=F ITyADJ=14
 ICtDFT=  3500011 ScaDFX=  1.000000  1.000000  1.000000  1.000000
 FoFCou: FMM=F IPFlag=           0 FMFlag=      100000 FMFlg1=           0
         NFxFlg=           0 DoJE=T BraDBF=F KetDBF=T FulRan=T
         wScrn=  0.000000 ICntrl=       500 IOpCl=  0 I1Cent=   200000004 NGrid=           0
         NMat0=    1 NMatS0=      1 NMatT0=    0 NMatD0=    1 NMtDS0=    0 NMtDT0=    0
 Petite list used in FoFCou.
 Requested convergence on RMS density matrix=1.00D-08 within 128 cycles.
 Requested convergence on MAX density matrix=1.00D-06.
 Requested convergence on             energy=1.00D-06.
 No special actions if energy rises.
 Integral accuracy reduced to 1.0D-05 until final iterations.
 Initial convergence to 1.0D-05 achieved.  Increase integral accuracy.
 SCF Done:  E(RwB97XD) =  -607.132193937     A.U. after   17 cycles
            NFock= 17  Conv=0.23D-08     -V/T= 2.0045

 **********************************************************************

            Population analysis using the SCF Density.

 **********************************************************************

 Orbital symmetries:
       Occupied  (A) (A) (A) (A) (A) (A) (A) (A) (A) (A) (A) (A)
                 (A) (A) (A) (A) (A) (A) (A) (A) (A) (A) (A) (A)
                 (A) (A) (A) (A) (A) (A) (A) (A) (A) (A) (A) (A)
                 (A) (A) (A) (A) (A) (A) (A) (A) (A) (A) (A) (A)
       Virtual   (A) (A) (A) (A) (A) (A) (A) (A) (A) (A) (A) (A)
                 (A) (A) (A) (A) (A) (A) (A) (A) (A) (A) (A) (A)
                 (A) (A) (A) (A) (A) (A) (A) (A) (A) (A) (A) (A)
                 (A) (A) (A) (A) (A) (A) (A) (A) (A) (A) (A) (A)
                 (A) (A) (A) (A) (A) (A) (A) (A) (A) (A) (A) (A)
                 (A) (A) (A) (A) (A) (A) (A) (A) (A) (A) (A) (A)
                 (A) (A) (A) (A) (A) (A) (A) (A) (A) (A) (A) (A)
                 (A) (A) (A) (A) (A) (A) (A) (A) (A) (A) (A) (A)
                 (A) (A) (A) (A) (A) (A) (A) (A) (A) (A) (A) (A)
                 (A) (A) (A) (A) (A) (A) (A) (A) (A) (A) (A) (A)
                 (A) (A) (A) (A) (A) (A) (A) (A) (A) (A) (A) (A)
                 (A) (A) (A) (A) (A) (A) (A) (A) (A) (A) (A) (A)
                 (A) (A) (A) (A) (A) (A) (A) (A) (A) (A) (A) (A)
                 (A) (A) (A) (A) (A) (A) (A) (A) (A) (A) (A) (A)
                 (A) (A) (A) (A) (A) (A) (A) (A) (A) (A) (A) (A)
                 (A) (A) (A) (A) (A) (A) (A) (A) (A) (A) (A) (A)
                 (A) (A) (A) (A) (A) (A) (A) (A) (A) (A) (A) (A)
                 (A) (A) (A) (A) (A) (A) (A) (A) (A) (A) (A) (A)
                 (A) (A) (A) (A) (A) (A) (A) (A) (A) (A) (A) (A)
                 (A) (A) (A) (A) (A) (A) (A) (A) (A) (A) (A) (A)
                 (A) (A) (A) (A) (A) (A) (A) (A) (A) (A) (A) (A)
                 (A) (A) (A) (A) (A) (A) (A) (A) (A) (A) (A) (A)
                 (A) (A) (A) (A) (A) (A) (A) (A) (A) (A) (A) (A)
                 (A) (A) (A) (A) (A) (A) (A) (A) (A) (A) (A) (A)
                 (A) (A) (A) (A) (A) (A) (A) (A) (A) (A) (A) (A)
                 (A) (A) (A) (A) (A) (A) (A) (A) (A) (A) (A) (A)
                 (A) (A) (A) (A) (A) (A) (A) (A) (A) (A) (A) (A)
                 (A) (A) (A) (A) (A) (A) (A) (A) (A) (A) (A) (A)
                 (A) (A) (A) (A) (A) (A) (A) (A) (A) (A) (A) (A)
                 (A) (A) (A) (A) (A) (A) (A) (A) (A) (A) (A) (A)
                 (A) (A) (A) (A) (A) (A) (A) (A) (A) (A) (A) (A)
                 (A) (A) (A) (A) (A) (A) (A) (A) (A) (A) (A) (A)
                 (A) (A) (A) (A) (A) (A) (A) (A) (A) (A) (A) (A)
                 (A) (A) (A) (A) (A) (A) (A) (A) (A) (A) (A) (A)
                 (A) (A) (A) (A) (A) (A)
 The electronic state is 1-A.
 Alpha  occ. eigenvalues --  -19.20422 -19.14476 -14.37147 -14.23909 -14.22526
 Alpha  occ. eigenvalues --  -14.22219 -10.32614 -10.25468 -10.19392 -10.16791
 Alpha  occ. eigenvalues --  -10.15867 -10.10001  -1.12372  -1.03769  -0.94111
 Alpha  occ. eigenvalues --   -0.85535  -0.80063  -0.77099  -0.73931  -0.71249
 Alpha  occ. eigenvalues --   -0.62980  -0.60595  -0.56971  -0.54598  -0.51433
 Alpha  occ. eigenvalues --   -0.48814  -0.47884  -0.45818  -0.45276  -0.43370
 Alpha  occ. eigenvalues --   -0.41576  -0.40411  -0.39060  -0.37225  -0.36354
 Alpha  occ. eigenvalues --   -0.34865  -0.33929  -0.32683  -0.31885  -0.31175
 Alpha  occ. eigenvalues --   -0.30456  -0.28830  -0.28067  -0.26198  -0.18583
 Alpha  occ. eigenvalues --   -0.15566  -0.11879  -0.03614
 Alpha virt. eigenvalues --    0.15790   0.18121   0.20614   0.22635   0.23412
 Alpha virt. eigenvalues --    0.25101   0.25773   0.26600   0.27638   0.28075
 Alpha virt. eigenvalues --    0.29988   0.31000   0.32231   0.32766   0.33065
 Alpha virt. eigenvalues --    0.35042   0.35163   0.35350   0.36260   0.37533
 Alpha virt. eigenvalues --    0.37812   0.39302   0.40664   0.42119   0.43970
 Alpha virt. eigenvalues --    0.43982   0.44775   0.45611   0.46265   0.47423
 Alpha virt. eigenvalues --    0.47727   0.48628   0.49473   0.50860   0.51359
 Alpha virt. eigenvalues --    0.52523   0.53442   0.54057   0.54850   0.55461
 Alpha virt. eigenvalues --    0.56127   0.56278   0.57343   0.57743   0.59354
 Alpha virt. eigenvalues --    0.59570   0.60759   0.61426   0.61808   0.62382
 Alpha virt. eigenvalues --    0.62775   0.63812   0.64018   0.64794   0.65270
 Alpha virt. eigenvalues --    0.65710   0.66209   0.66891   0.67789   0.69054
 Alpha virt. eigenvalues --    0.69604   0.70133   0.70912   0.71883   0.72018
 Alpha virt. eigenvalues --    0.72161   0.73328   0.73837   0.74426   0.75423
 Alpha virt. eigenvalues --    0.77319   0.78256   0.78701   0.79341   0.80684
 Alpha virt. eigenvalues --    0.82211   0.82436   0.83636   0.84493   0.86001
 Alpha virt. eigenvalues --    0.86278   0.88823   0.90498   0.91044   0.92874
 Alpha virt. eigenvalues --    0.94837   0.96356   0.97943   0.99761   1.00845
 Alpha virt. eigenvalues --    1.02374   1.03778   1.06101   1.06362   1.07991
 Alpha virt. eigenvalues --    1.09051   1.09783   1.10166   1.13209   1.15418
 Alpha virt. eigenvalues --    1.17042   1.17427   1.18733   1.21162   1.22773
 Alpha virt. eigenvalues --    1.23775   1.26274   1.28246   1.29839   1.30457
 Alpha virt. eigenvalues --    1.33323   1.33925   1.36444   1.38042   1.40542
 Alpha virt. eigenvalues --    1.41140   1.43166   1.46342   1.47522   1.48701
 Alpha virt. eigenvalues --    1.49432   1.50888   1.52395   1.52728   1.53958
 Alpha virt. eigenvalues --    1.55046   1.55910   1.57209   1.58176   1.60402
 Alpha virt. eigenvalues --    1.61383   1.63436   1.64811   1.65563   1.66730
 Alpha virt. eigenvalues --    1.67398   1.70184   1.70834   1.72403   1.73564
 Alpha virt. eigenvalues --    1.73823   1.75758   1.77739   1.78325   1.80024
 Alpha virt. eigenvalues --    1.80328   1.81920   1.82839   1.85187   1.86751
 Alpha virt. eigenvalues --    1.88767   1.89486   1.92918   1.93667   1.95348
 Alpha virt. eigenvalues --    1.95481   1.97107   1.98695   1.99220   2.00941
 Alpha virt. eigenvalues --    2.02580   2.04044   2.05269   2.06054   2.08057
 Alpha virt. eigenvalues --    2.09411   2.09947   2.10758   2.11469   2.13507
 Alpha virt. eigenvalues --    2.15739   2.16015   2.16610   2.18322   2.20451
 Alpha virt. eigenvalues --    2.21275   2.22126   2.22475   2.23540   2.24989
 Alpha virt. eigenvalues --    2.25694   2.26700   2.27097   2.28715   2.29278
 Alpha virt. eigenvalues --    2.31689   2.32919   2.33656   2.36884   2.37446
 Alpha virt. eigenvalues --    2.40116   2.40453   2.43511   2.44384   2.45367
 Alpha virt. eigenvalues --    2.45988   2.48393   2.48818   2.51461   2.52213
 Alpha virt. eigenvalues --    2.54651   2.56317   2.57942   2.58564   2.60090
 Alpha virt. eigenvalues --    2.60927   2.62244   2.64838   2.65629   2.68138
 Alpha virt. eigenvalues --    2.68995   2.69029   2.70723   2.71605   2.73036
 Alpha virt. eigenvalues --    2.75183   2.76353   2.77581   2.79179   2.80104
 Alpha virt. eigenvalues --    2.81951   2.83106   2.83701   2.84165   2.86393
 Alpha virt. eigenvalues --    2.88822   2.89543   2.90256   2.90751   2.91069
 Alpha virt. eigenvalues --    2.94541   2.94833   2.95677   2.96395   2.97288
 Alpha virt. eigenvalues --    2.99809   3.04001   3.05102   3.06516   3.08076
 Alpha virt. eigenvalues --    3.09161   3.10371   3.12221   3.13453   3.14598
 Alpha virt. eigenvalues --    3.16948   3.18807   3.21557   3.22099   3.25183
 Alpha virt. eigenvalues --    3.25788   3.26126   3.28547   3.29228   3.29970
 Alpha virt. eigenvalues --    3.31679   3.32141   3.38015   3.39004   3.41311
 Alpha virt. eigenvalues --    3.42015   3.42837   3.44892   3.45180   3.46287
 Alpha virt. eigenvalues --    3.46633   3.48774   3.49876   3.51276   3.51829
 Alpha virt. eigenvalues --    3.52605   3.53638   3.54514   3.56646   3.59025
 Alpha virt. eigenvalues --    3.60844   3.62557   3.64023   3.64847   3.66009
 Alpha virt. eigenvalues --    3.68118   3.68938   3.69602   3.70807   3.74083
 Alpha virt. eigenvalues --    3.75426   3.76569   3.77702   3.81445   3.82021
 Alpha virt. eigenvalues --    3.83444   3.85643   3.85967   3.88326   3.91991
 Alpha virt. eigenvalues --    3.93940   3.95050   3.99570   4.04143   4.04820
 Alpha virt. eigenvalues --    4.06134   4.08025   4.11367   4.12436   4.13642
 Alpha virt. eigenvalues --    4.14107   4.18041   4.20529   4.21167   4.21856
 Alpha virt. eigenvalues --    4.26366   4.31478   4.32806   4.36542   4.37697
 Alpha virt. eigenvalues --    4.40521   4.43705   4.48576   4.50730   4.53614
 Alpha virt. eigenvalues --    4.53880   4.57952   4.58739   4.59901   4.61273
 Alpha virt. eigenvalues --    4.64113   4.66329   4.70324   4.74355   4.74719
 Alpha virt. eigenvalues --    4.77562   4.81544   4.84587   4.88308   4.89301
 Alpha virt. eigenvalues --    4.91625   4.93502   4.97557   4.98963   4.99309
 Alpha virt. eigenvalues --    5.01039   5.02112   5.07397   5.09609   5.10272
 Alpha virt. eigenvalues --    5.11893   5.12924   5.16877   5.18654   5.20594
 Alpha virt. eigenvalues --    5.24280   5.26052   5.28316   5.29848   5.30704
 Alpha virt. eigenvalues --    5.34057   5.35033   5.35229   5.38125   5.38567
 Alpha virt. eigenvalues --    5.41403   5.42308   5.45033   5.46693   5.48829
 Alpha virt. eigenvalues --    5.49606   5.52970   5.56631   5.59555   5.61409
 Alpha virt. eigenvalues --    5.63842   5.68270   5.70665   5.72321   5.72342
 Alpha virt. eigenvalues --    5.73950   5.76236   5.80425   5.86997   5.87748
 Alpha virt. eigenvalues --    5.93175   5.94232   5.96653   6.01193   6.10708
 Alpha virt. eigenvalues --    6.16564   6.20172   6.25857   6.35950   6.36440
 Alpha virt. eigenvalues --    6.53630   6.58950   6.63519   6.67846   6.89955
 Alpha virt. eigenvalues --    6.90132   6.97029   7.00754   7.19116   7.30569
 Alpha virt. eigenvalues --    7.34110   7.46541  22.62026  22.71308  22.73364
 Alpha virt. eigenvalues --   22.76941  22.79919  23.51681  32.20082  32.22151
 Alpha virt. eigenvalues --   32.30617  32.74889  44.02110  44.08741
          Condensed to atoms (all electrons):
               1          2          3          4          5          6
     1  N    6.771196   0.368699   0.372494   0.056216   0.142703  -0.044808
     2  H    0.368699   0.441765  -0.028763  -0.001653  -0.033597   0.005968
     3  H    0.372494  -0.028763   0.442055  -0.000773  -0.019371  -0.010993
     4  H    0.056216  -0.001653  -0.000773   0.358825  -0.017513   0.001364
     5  C    0.142703  -0.033597  -0.019371  -0.017513   5.404103   0.404366
     6  H   -0.044808   0.005968  -0.010993   0.001364   0.404366   0.578474
     7  C   -0.050443  -0.005908  -0.002915   0.003811   0.223304  -0.035786
     8  H    0.008512   0.000338  -0.000453  -0.000234  -0.044721  -0.003128
     9  H   -0.010422   0.004964  -0.000161  -0.000098  -0.024912   0.008542
    10  C    0.010040  -0.000138   0.001701  -0.000244  -0.040896  -0.003577
    11  H    0.017710   0.003236  -0.000422   0.000006  -0.024021  -0.000810
    12  H   -0.001735   0.000347   0.000414  -0.000046   0.005949   0.003027
    13  C    0.001915  -0.000496   0.000178   0.000005  -0.014483   0.000720
    14  H   -0.000105   0.000051  -0.000006   0.000000   0.001670  -0.000009
    15  H    0.000066  -0.000009   0.000047  -0.000002   0.002192  -0.000245
    16  N    0.000117   0.000005   0.000008  -0.000000  -0.000984  -0.000071
    17  H   -0.000182   0.000109   0.000004  -0.000001   0.001140  -0.000056
    18  C    0.000017  -0.000009   0.000000  -0.000000  -0.000150   0.000003
    19  N   -0.000000   0.000002   0.000000   0.000000   0.000025  -0.000001
    20  H   -0.000000   0.000000  -0.000000   0.000000   0.000007   0.000000
    21  H   -0.000001   0.000004   0.000000  -0.000000   0.000027  -0.000001
    22  N   -0.000000   0.000000   0.000000  -0.000000  -0.000002  -0.000000
    23  H   -0.000000  -0.000000   0.000000   0.000000   0.000000  -0.000000
    24  H   -0.000000   0.000000   0.000000  -0.000000   0.000007  -0.000000
    25  C   -0.006123  -0.000627   0.000449  -0.034423   0.233388  -0.014189
    26  O   -0.045383   0.000868   0.000307   0.288910  -0.123785   0.001699
    27  O    0.005318  -0.000022  -0.000214   0.005001  -0.131371   0.002425
               7          8          9         10         11         12
     1  N   -0.050443   0.008512  -0.010422   0.010040   0.017710  -0.001735
     2  H   -0.005908   0.000338   0.004964  -0.000138   0.003236   0.000347
     3  H   -0.002915  -0.000453  -0.000161   0.001701  -0.000422   0.000414
     4  H    0.003811  -0.000234  -0.000098  -0.000244   0.000006  -0.000046
     5  C    0.223304  -0.044721  -0.024912  -0.040896  -0.024021   0.005949
     6  H   -0.035786  -0.003128   0.008542  -0.003577  -0.000810   0.003027
     7  C    5.317858   0.396267   0.389872   0.144153  -0.057061  -0.019886
     8  H    0.396267   0.532441  -0.016399  -0.017643   0.007857  -0.006882
     9  H    0.389872  -0.016399   0.599496  -0.058520  -0.006013   0.008380
    10  C    0.144153  -0.017643  -0.058520   5.298913   0.411728   0.355461
    11  H   -0.057061   0.007857  -0.006013   0.411728   0.667190  -0.042657
    12  H   -0.019886  -0.006882   0.008380   0.355461  -0.042657   0.625082
    13  C   -0.056397   0.005395   0.006217   0.141158  -0.032298  -0.025131
    14  H   -0.027826   0.003416  -0.001410   0.046187   0.012278  -0.014283
    15  H    0.048267  -0.002736   0.005002  -0.093354  -0.014927   0.018621
    16  N    0.011445   0.000139   0.000218  -0.100708  -0.005285   0.018876
    17  H   -0.002451  -0.000161  -0.000381   0.040230   0.018823  -0.000542
    18  C   -0.002724  -0.000091   0.000151  -0.006017  -0.001791  -0.000116
    19  N    0.001482  -0.000005  -0.000136   0.006939  -0.000284   0.000203
    20  H   -0.000157   0.000012  -0.000043   0.001611   0.000073  -0.000125
    21  H    0.000036  -0.000014  -0.000052   0.005705   0.000951   0.000075
    22  N   -0.000109  -0.000000  -0.000001  -0.001157  -0.000058  -0.000139
    23  H    0.000074  -0.000002   0.000001  -0.000403  -0.000085   0.000355
    24  H    0.000003  -0.000003  -0.000001   0.002472   0.000302   0.000226
    25  C   -0.018195  -0.002247  -0.002184  -0.004049  -0.000423   0.000699
    26  O   -0.001459   0.000947   0.002264  -0.000663  -0.000009   0.000012
    27  O    0.011585   0.012345   0.000308  -0.001352  -0.000079   0.000025
              13         14         15         16         17         18
     1  N    0.001915  -0.000105   0.000066   0.000117  -0.000182   0.000017
     2  H   -0.000496   0.000051  -0.000009   0.000005   0.000109  -0.000009
     3  H    0.000178  -0.000006   0.000047   0.000008   0.000004   0.000000
     4  H    0.000005   0.000000  -0.000002  -0.000000  -0.000001  -0.000000
     5  C   -0.014483   0.001670   0.002192  -0.000984   0.001140  -0.000150
     6  H    0.000720  -0.000009  -0.000245  -0.000071  -0.000056   0.000003
     7  C   -0.056397  -0.027826   0.048267   0.011445  -0.002451  -0.002724
     8  H    0.005395   0.003416  -0.002736   0.000139  -0.000161  -0.000091
     9  H    0.006217  -0.001410   0.005002   0.000218  -0.000381   0.000151
    10  C    0.141158   0.046187  -0.093354  -0.100708   0.040230  -0.006017
    11  H   -0.032298   0.012278  -0.014927  -0.005285   0.018823  -0.001791
    12  H   -0.025131  -0.014283   0.018621   0.018876  -0.000542  -0.000116
    13  C    5.210744   0.281926   0.344537   0.436282  -0.165802  -0.066828
    14  H    0.281926   0.678230  -0.071097  -0.055366   0.043783   0.034947
    15  H    0.344537  -0.071097   0.862760  -0.103546  -0.005730  -0.031769
    16  N    0.436282  -0.055366  -0.103546   6.811606   0.148104   0.526638
    17  H   -0.165802   0.043783  -0.005730   0.148104   1.011096  -0.285734
    18  C   -0.066828   0.034947  -0.031769   0.526638  -0.285734   5.699610
    19  N    0.014014  -0.003075   0.040263  -0.163106  -0.015723   0.349942
    20  H    0.004335   0.001330  -0.002062   0.005150   0.000182  -0.073199
    21  H   -0.015822   0.008249   0.006357  -0.043914   0.128520  -0.279505
    22  N    0.007371   0.003321  -0.000251  -0.173385   0.025918   0.417710
    23  H    0.001318  -0.000599   0.000497   0.014864   0.001017  -0.078611
    24  H   -0.007723   0.002665   0.001200  -0.043980   0.104036  -0.252400
    25  C   -0.000297  -0.000139   0.000414  -0.000002   0.000008  -0.000003
    26  O    0.000004  -0.000001  -0.000001  -0.000000  -0.000000   0.000000
    27  O    0.000197  -0.000029  -0.000004  -0.000000   0.000000   0.000000
              19         20         21         22         23         24
     1  N   -0.000000  -0.000000  -0.000001  -0.000000  -0.000000  -0.000000
     2  H    0.000002   0.000000   0.000004   0.000000  -0.000000   0.000000
     3  H    0.000000  -0.000000   0.000000   0.000000   0.000000   0.000000
     4  H    0.000000   0.000000  -0.000000  -0.000000   0.000000  -0.000000
     5  C    0.000025   0.000007   0.000027  -0.000002   0.000000   0.000007
     6  H   -0.000001   0.000000  -0.000001  -0.000000  -0.000000  -0.000000
     7  C    0.001482  -0.000157   0.000036  -0.000109   0.000074   0.000003
     8  H   -0.000005   0.000012  -0.000014  -0.000000  -0.000002  -0.000003
     9  H   -0.000136  -0.000043  -0.000052  -0.000001   0.000001  -0.000001
    10  C    0.006939   0.001611   0.005705  -0.001157  -0.000403   0.002472
    11  H   -0.000284   0.000073   0.000951  -0.000058  -0.000085   0.000302
    12  H    0.000203  -0.000125   0.000075  -0.000139   0.000355   0.000226
    13  C    0.014014   0.004335  -0.015822   0.007371   0.001318  -0.007723
    14  H   -0.003075   0.001330   0.008249   0.003321  -0.000599   0.002665
    15  H    0.040263  -0.002062   0.006357  -0.000251   0.000497   0.001200
    16  N   -0.163106   0.005150  -0.043914  -0.173385   0.014864  -0.043980
    17  H   -0.015723   0.000182   0.128520   0.025918   0.001017   0.104036
    18  C    0.349942  -0.073199  -0.279505   0.417710  -0.078611  -0.252400
    19  N    6.738894   0.388706   0.244358  -0.094077   0.013620  -0.025683
    20  H    0.388706   0.541805  -0.048904   0.009522  -0.001465  -0.001154
    21  H    0.244358  -0.048904   0.889777  -0.007485  -0.000740   0.095411
    22  N   -0.094077   0.009522  -0.007485   6.684205   0.366723   0.265564
    23  H    0.013620  -0.001465  -0.000740   0.366723   0.567167  -0.043819
    24  H   -0.025683  -0.001154   0.095411   0.265564  -0.043819   0.867962
    25  C    0.000000  -0.000000   0.000000  -0.000000   0.000000   0.000000
    26  O   -0.000000  -0.000000   0.000000  -0.000000  -0.000000   0.000000
    27  O    0.000000  -0.000000   0.000000   0.000000   0.000000   0.000000
              25         26         27
     1  N   -0.006123  -0.045383   0.005318
     2  H   -0.000627   0.000868  -0.000022
     3  H    0.000449   0.000307  -0.000214
     4  H   -0.034423   0.288910   0.005001
     5  C    0.233388  -0.123785  -0.131371
     6  H   -0.014189   0.001699   0.002425
     7  C   -0.018195  -0.001459   0.011585
     8  H   -0.002247   0.000947   0.012345
     9  H   -0.002184   0.002264   0.000308
    10  C   -0.004049  -0.000663  -0.001352
    11  H   -0.000423  -0.000009  -0.000079
    12  H    0.000699   0.000012   0.000025
    13  C   -0.000297   0.000004   0.000197
    14  H   -0.000139  -0.000001  -0.000029
    15  H    0.000414  -0.000001  -0.000004
    16  N   -0.000002  -0.000000  -0.000000
    17  H    0.000008  -0.000000   0.000000
    18  C   -0.000003   0.000000   0.000000
    19  N    0.000000  -0.000000   0.000000
    20  H   -0.000000  -0.000000  -0.000000
    21  H    0.000000   0.000000   0.000000
    22  N   -0.000000  -0.000000   0.000000
    23  H    0.000000  -0.000000   0.000000
    24  H    0.000000   0.000000   0.000000
    25  C    4.436034   0.392315   0.700647
    26  O    0.392315   7.953830  -0.085404
    27  O    0.700647  -0.085404   7.840561
 Mulliken charges:
               1
     1  N   -0.595799
     2  H    0.244863
     3  H    0.246413
     4  H    0.340848
     5  C    0.056924
     6  H    0.107087
     7  C   -0.266840
     8  H    0.127052
     9  H    0.095318
    10  C   -0.137576
    11  H    0.046071
    12  H    0.073786
    13  C   -0.071042
    14  H    0.055891
    15  H   -0.004490
    16  N   -0.283104
    17  H   -0.046207
    18  C    0.049927
    19  N   -0.496356
    20  H    0.174376
    21  H    0.016969
    22  N   -0.503671
    23  H    0.160087
    24  H    0.034914
    25  C    0.318945
    26  O   -0.384452
    27  O   -0.359934
 Sum of Mulliken charges =  -1.00000
 Mulliken charges with hydrogens summed into heavy atoms:
               1
     1  N   -0.104522
     5  C    0.164010
     7  C   -0.044470
    10  C   -0.017718
    13  C   -0.019641
    16  N   -0.329311
    18  C    0.049927
    19  N   -0.305011
    22  N   -0.308670
    25  C    0.318945
    26  O   -0.043604
    27  O   -0.359934
 Electronic spatial extent (au):  <R**2>=           4291.3795
 Charge=             -1.0000 electrons
 Dipole moment (field-independent basis, Debye):
    X=            -14.1020    Y=              5.7888    Z=              0.8639  Tot=             15.2684
 Quadrupole moment (field-independent basis, Debye-Ang):
   XX=           -197.7734   YY=            -83.2865   ZZ=            -78.7798
   XY=             -2.8294   XZ=              0.4022   YZ=             -1.7481
 Traceless Quadrupole moment (field-independent basis, Debye-Ang):
   XX=            -77.8268   YY=             36.6601   ZZ=             41.1667
   XY=             -2.8294   XZ=              0.4022   YZ=             -1.7481
 Octapole moment (field-independent basis, Debye-Ang**2):
  XXX=           -355.8877  YYY=             20.7603  ZZZ=             -3.2749  XYY=            -19.1821
  XXY=             94.3743  XXZ=             -8.1861  XZZ=            -34.3962  YZZ=              5.2785
  YYZ=              3.8276  XYZ=              3.7264
 Hexadecapole moment (field-independent basis, Debye-Ang**3):
 XXXX=          -8082.9098 YYYY=           -423.0471 ZZZZ=           -267.5051 XXXY=             54.1945
 XXXZ=            -25.5148 YYYX=            -26.4788 YYYZ=            -10.9396 ZZZX=            -34.0167
 ZZZY=             -0.6333 XXYY=          -1040.3860 XXZZ=           -950.3204 YYZZ=           -113.3178
 XXYZ=            -15.7990 YYXZ=             -7.1446 ZZXY=              4.6019
 N-N= 7.113272139266D+02 E-N=-2.854449055809D+03  KE= 6.044117158823D+02
 Unable to Open any file for archive entry.
 1\1\GINC-WATER\SP\RwB97XD\def2TZVP\C6H15N4O2(1-)\DAYALYZ\11-Jun-2025\0
 \\# wB97xD/Def2TZVP SCF(Tight) Int(Grid=299974)\\Displacement_0.07\\-1
 ,1\N,0,-2.449391,1.662106,0.312579\H,0,-1.892601,1.661727,1.158668\H,0
 ,-2.080546,2.396181,-0.273303\H,0,-4.177396,1.141286,0.662011\C,0,-2.3
 48291,0.354291,-0.351331\H,0,-2.34121,0.525036,-1.432399\C,0,-1.094454
 ,-0.433998,0.018947\H,0,-1.158799,-1.420651,-0.442292\H,0,-1.094388,-0
 .600813,1.103594\C,0,0.189472,0.269027,-0.401511\H,0,0.226249,1.274775
 ,0.033698\H,0,0.202187,0.403801,-1.488111\C,0,1.454987,-0.475381,0.010
 983\H,0,1.500154,-1.449364,-0.486622\H,0,1.386651,-0.692128,1.097108\N
 ,0,2.637813,0.252447,-0.370362\H,0,2.663477,1.14038,0.185521\C,0,3.910
 4,-0.45352,-0.158539\N,0,4.228164,-0.561012,1.258282\H,0,3.548117,-1.1
 74361,1.688052\H,0,4.150188,0.395081,1.674639\N,0,4.953503,0.386804,-0
 .712269\H,0,4.687141,0.636868,-1.659112\H,0,4.939928,1.331549,-0.24942
 1\C,0,-3.634014,-0.44553,-0.088747\O,0,-4.586522,0.257947,0.524834\O,0
 ,-3.789113,-1.585375,-0.425703\\Version=ES64L-G16RevC.01\State=1-A\HF=
 -607.1321939\RMSD=2.290e-09\Dipole=-5.5484488,2.2775662,0.3348078\Quad
 rupole=-57.8616367,27.2486032,30.6130334,-2.1153981,0.3168693,-1.29071
 01\PG=C01 [X(C6H15N4O2)]\\@
 The archive entry for this job was punched.


 POCKETA-POCKETA
 BARON VON RICHTOFEN
 SLAUGHTERED THE ALLIES WITH
 HARDLY A CARE.
 KILLED EIGHTY-ONE WITH HIS
 BLOOD-COLORED TRIPLANE, THEN
 UN-AEROBATICALLY
 PLUNGED FROM THE AIR.
   -- TONY HOFFMAN
 Job cpu time:       0 days  0 hours 49 minutes 21.2 seconds.
 Elapsed time:       0 days  0 hours 49 minutes 27.5 seconds.
 File lengths (MBytes):  RWF=    118 Int=      0 D2E=      0 Chk=     13 Scr=      1
 Normal termination of Gaussian 16 at Wed Jun 11 00:33:19 2025.
